<?xml version="1.0"?>
<VTKFile type="UnstructuredGrid" version="0.1" byte_order="LittleEndian" compressor="vtkZLibDataCompressor">
  <UnstructuredGrid>
    <Piece NumberOfPoints="441" NumberOfCells="200">
      <PointData>
        <DataArray type="Float64" Name="u" format="ascii" RangeMin="0" RangeMax="0">
          0 0 0 0 0 0
          0 0 0 0 0 0
          0 0 0 0 0 0
          0 0 0 0 0 0
          0 0 0 0 0 0
          0 0 0 0 0 0
          0 0 0 0 0 0
          0 0 0 0 0 0
          0 0 0 0 0 0
          0 0 0 0 0 0
          0 0 0 0 0 0
          0 0 0 0 0 0
          0 0 0 0 0 0
          0 0 0 0 0 0
          0 0 0 0 0 0
          0 0 0 0 0 0
          0 0 0 0 0 0
          0 0 0 0 0 0
          0 0 0 0 0 0
          0 0 0 0 0 0
          0 0 0 0 0 0
          0 0 0 0 0 0
          0 0 0 0 0 0
          0 0 0 0 0 0
          0 0 0 0 0 0
          0 0 0 0 0 0
          0 0 0 0 0 0
          0 0 0 0 0 0
          0 0 0 0 0 0
          0 0 0 0 0 0
          0 0 0 0 0 0
          0 0 0 0 0 0
          0 0 0 0 0 0
          0 0 0 0 0 0
          0 0 0 0 0 0
          0 0 0 0 0 0
          0 0 0 0 0 0
          0 0 0 0 0 0
          0 0 0 0 0 0
          0 0 0 0 0 0
          0 0 0 0 0 0
          0 0 0 0 0 0
          0 0 0 0 0 0
          0 0 0 0 0 0
          0 0 0 0 0 0
          0 0 0 0 0 0
          0 0 0 0 0 0
          0 0 0 0 0 0
          0 0 0 0 0 0
          0 0 0 0 0 0
          0 0 0 0 0 0
          0 0 0 0 0 0
          0 0 0 0 0 0
          0 0 0 0 0 0
          0 0 0 0 0 0
          0 0 0 0 0 0
          0 0 0 0 0 0
          0 0 0 0 0 0
          0 0 0 0 0 0
          0 0 0 0 0 0
          0 0 0 0 0 0
          0 0 0 0 0 0
          0 0 0 0 0 0
          0 0 0 0 0 0
          0 0 0 0 0 0
          0 0 0 0 0 0
          0 0 0 0 0 0
          0 0 0 0 0 0
          0 0 0 0 0 0
          0 0 0 0 0 0
          0 0 0 0 0 0
          0 0 0 0 0 0
          0 0 0 0 0 0
          0 0 0
        </DataArray>
        <DataArray type="Float64" Name="v" format="ascii" RangeMin="0" RangeMax="0">
          0 0 0 0 0 0
          0 0 0 0 0 0
          0 0 0 0 0 0
          0 0 0 0 0 0
          0 0 0 0 0 0
          0 0 0 0 0 0
          0 0 0 0 0 0
          0 0 0 0 0 0
          0 0 0 0 0 0
          0 0 0 0 0 0
          0 0 0 0 0 0
          0 0 0 0 0 0
          0 0 0 0 0 0
          0 0 0 0 0 0
          0 0 0 0 0 0
          0 0 0 0 0 0
          0 0 0 0 0 0
          0 0 0 0 0 0
          0 0 0 0 0 0
          0 0 0 0 0 0
          0 0 0 0 0 0
          0 0 0 0 0 0
          0 0 0 0 0 0
          0 0 0 0 0 0
          0 0 0 0 0 0
          0 0 0 0 0 0
          0 0 0 0 0 0
          0 0 0 0 0 0
          0 0 0 0 0 0
          0 0 0 0 0 0
          0 0 0 0 0 0
          0 0 0 0 0 0
          0 0 0 0 0 0
          0 0 0 0 0 0
          0 0 0 0 0 0
          0 0 0 0 0 0
          0 0 0 0 0 0
          0 0 0 0 0 0
          0 0 0 0 0 0
          0 0 0 0 0 0
          0 0 0 0 0 0
          0 0 0 0 0 0
          0 0 0 0 0 0
          0 0 0 0 0 0
          0 0 0 0 0 0
          0 0 0 0 0 0
          0 0 0 0 0 0
          0 0 0 0 0 0
          0 0 0 0 0 0
          0 0 0 0 0 0
          0 0 0 0 0 0
          0 0 0 0 0 0
          0 0 0 0 0 0
          0 0 0 0 0 0
          0 0 0 0 0 0
          0 0 0 0 0 0
          0 0 0 0 0 0
          0 0 0 0 0 0
          0 0 0 0 0 0
          0 0 0 0 0 0
          0 0 0 0 0 0
          0 0 0 0 0 0
          0 0 0 0 0 0
          0 0 0 0 0 0
          0 0 0 0 0 0
          0 0 0 0 0 0
          0 0 0 0 0 0
          0 0 0 0 0 0
          0 0 0 0 0 0
          0 0 0 0 0 0
          0 0 0 0 0 0
          0 0 0 0 0 0
          0 0 0 0 0 0
          0 0 0
        </DataArray>
        <DataArray type="Float64" Name="p" format="ascii" RangeMin="0" RangeMax="0">
          0 0 0 0 0 0
          0 0 0 0 0 0
          0 0 0 0 0 0
          0 0 0 0 0 0
          0 0 0 0 0 0
          0 0 0 0 0 0
          0 0 0 0 0 0
          0 0 0 0 0 0
          0 0 0 0 0 0
          0 0 0 0 0 0
          0 0 0 0 0 0
          0 0 0 0 0 0
          0 0 0 0 0 0
          0 0 0 0 0 0
          0 0 0 0 0 0
          0 0 0 0 0 0
          0 0 0 0 0 0
          0 0 0 0 0 0
          0 0 0 0 0 0
          0 0 0 0 0 0
          0 0 0 0 0 0
          0 0 0 0 0 0
          0 0 0 0 0 0
          0 0 0 0 0 0
          0 0 0 0 0 0
          0 0 0 0 0 0
          0 0 0 0 0 0
          0 0 0 0 0 0
          0 0 0 0 0 0
          0 0 0 0 0 0
          0 0 0 0 0 0
          0 0 0 0 0 0
          0 0 0 0 0 0
          0 0 0 0 0 0
          0 0 0 0 0 0
          0 0 0 0 0 0
          0 0 0 0 0 0
          0 0 0 0 0 0
          0 0 0 0 0 0
          0 0 0 0 0 0
          0 0 0 0 0 0
          0 0 0 0 0 0
          0 0 0 0 0 0
          0 0 0 0 0 0
          0 0 0 0 0 0
          0 0 0 0 0 0
          0 0 0 0 0 0
          0 0 0 0 0 0
          0 0 0 0 0 0
          0 0 0 0 0 0
          0 0 0 0 0 0
          0 0 0 0 0 0
          0 0 0 0 0 0
          0 0 0 0 0 0
          0 0 0 0 0 0
          0 0 0 0 0 0
          0 0 0 0 0 0
          0 0 0 0 0 0
          0 0 0 0 0 0
          0 0 0 0 0 0
          0 0 0 0 0 0
          0 0 0 0 0 0
          0 0 0 0 0 0
          0 0 0 0 0 0
          0 0 0 0 0 0
          0 0 0 0 0 0
          0 0 0 0 0 0
          0 0 0 0 0 0
          0 0 0 0 0 0
          0 0 0 0 0 0
          0 0 0 0 0 0
          0 0 0 0 0 0
          0 0 0 0 0 0
          0 0 0
        </DataArray>
        <DataArray type="Float64" Name="T" format="ascii" RangeMin="0" RangeMax="0">
          0 0 0 0 0 0
          0 0 0 0 0 0
          0 0 0 0 0 0
          0 0 0 0 0 0
          0 0 0 0 0 0
          0 0 0 0 0 0
          0 0 0 0 0 0
          0 0 0 0 0 0
          0 0 0 0 0 0
          0 0 0 0 0 0
          0 0 0 0 0 0
          0 0 0 0 0 0
          0 0 0 0 0 0
          0 0 0 0 0 0
          0 0 0 0 0 0
          0 0 0 0 0 0
          0 0 0 0 0 0
          0 0 0 0 0 0
          0 0 0 0 0 0
          0 0 0 0 0 0
          0 0 0 0 0 0
          0 0 0 0 0 0
          0 0 0 0 0 0
          0 0 0 0 0 0
          0 0 0 0 0 0
          0 0 0 0 0 0
          0 0 0 0 0 0
          0 0 0 0 0 0
          0 0 0 0 0 0
          0 0 0 0 0 0
          0 0 0 0 0 0
          0 0 0 0 0 0
          0 0 0 0 0 0
          0 0 0 0 0 0
          0 0 0 0 0 0
          0 0 0 0 0 0
          0 0 0 0 0 0
          0 0 0 0 0 0
          0 0 0 0 0 0
          0 0 0 0 0 0
          0 0 0 0 0 0
          0 0 0 0 0 0
          0 0 0 0 0 0
          0 0 0 0 0 0
          0 0 0 0 0 0
          0 0 0 0 0 0
          0 0 0 0 0 0
          0 0 0 0 0 0
          0 0 0 0 0 0
          0 0 0 0 0 0
          0 0 0 0 0 0
          0 0 0 0 0 0
          0 0 0 0 0 0
          0 0 0 0 0 0
          0 0 0 0 0 0
          0 0 0 0 0 0
          0 0 0 0 0 0
          0 0 0 0 0 0
          0 0 0 0 0 0
          0 0 0 0 0 0
          0 0 0 0 0 0
          0 0 0 0 0 0
          0 0 0 0 0 0
          0 0 0 0 0 0
          0 0 0 0 0 0
          0 0 0 0 0 0
          0 0 0 0 0 0
          0 0 0 0 0 0
          0 0 0 0 0 0
          0 0 0 0 0 0
          0 0 0 0 0 0
          0 0 0 0 0 0
          0 0 0 0 0 0
          0 0 0
        </DataArray>
      </PointData>
      <CellData>
        <DataArray type="Int32" Name="libmesh_elem_id" format="ascii" RangeMin="0" RangeMax="199">
          0 1 2 3 4 5
          6 7 8 9 10 11
          12 13 14 15 16 17
          18 19 20 21 22 23
          24 25 26 27 28 29
          30 31 32 33 34 35
          36 37 38 39 40 41
          42 43 44 45 46 47
          48 49 50 51 52 53
          54 55 56 57 58 59
          60 61 62 63 64 65
          66 67 68 69 70 71
          72 73 74 75 76 77
          78 79 80 81 82 83
          84 85 86 87 88 89
          90 91 92 93 94 95
          96 97 98 99 100 101
          102 103 104 105 106 107
          108 109 110 111 112 113
          114 115 116 117 118 119
          120 121 122 123 124 125
          126 127 128 129 130 131
          132 133 134 135 136 137
          138 139 140 141 142 143
          144 145 146 147 148 149
          150 151 152 153 154 155
          156 157 158 159 160 161
          162 163 164 165 166 167
          168 169 170 171 172 173
          174 175 176 177 178 179
          180 181 182 183 184 185
          186 187 188 189 190 191
          192 193 194 195 196 197
          198 199
        </DataArray>
        <DataArray type="Int32" Name="subdomain_id" format="ascii" RangeMin="0" RangeMax="0">
          0 0 0 0 0 0
          0 0 0 0 0 0
          0 0 0 0 0 0
          0 0 0 0 0 0
          0 0 0 0 0 0
          0 0 0 0 0 0
          0 0 0 0 0 0
          0 0 0 0 0 0
          0 0 0 0 0 0
          0 0 0 0 0 0
          0 0 0 0 0 0
          0 0 0 0 0 0
          0 0 0 0 0 0
          0 0 0 0 0 0
          0 0 0 0 0 0
          0 0 0 0 0 0
          0 0 0 0 0 0
          0 0 0 0 0 0
          0 0 0 0 0 0
          0 0 0 0 0 0
          0 0 0 0 0 0
          0 0 0 0 0 0
          0 0 0 0 0 0
          0 0 0 0 0 0
          0 0 0 0 0 0
          0 0 0 0 0 0
          0 0 0 0 0 0
          0 0 0 0 0 0
          0 0 0 0 0 0
          0 0 0 0 0 0
          0 0 0 0 0 0
          0 0 0 0 0 0
          0 0 0 0 0 0
          0 0
        </DataArray>
        <DataArray type="Int32" Name="processor_id" format="ascii" RangeMin="0" RangeMax="0">
          0 0 0 0 0 0
          0 0 0 0 0 0
          0 0 0 0 0 0
          0 0 0 0 0 0
          0 0 0 0 0 0
          0 0 0 0 0 0
          0 0 0 0 0 0
          0 0 0 0 0 0
          0 0 0 0 0 0
          0 0 0 0 0 0
          0 0 0 0 0 0
          0 0 0 0 0 0
          0 0 0 0 0 0
          0 0 0 0 0 0
          0 0 0 0 0 0
          0 0 0 0 0 0
          0 0 0 0 0 0
          0 0 0 0 0 0
          0 0 0 0 0 0
          0 0 0 0 0 0
          0 0 0 0 0 0
          0 0 0 0 0 0
          0 0 0 0 0 0
          0 0 0 0 0 0
          0 0 0 0 0 0
          0 0 0 0 0 0
          0 0 0 0 0 0
          0 0 0 0 0 0
          0 0 0 0 0 0
          0 0 0 0 0 0
          0 0 0 0 0 0
          0 0 0 0 0 0
          0 0 0 0 0 0
          0 0
        </DataArray>
      </CellData>
      <Points>
        <DataArray type="Float64" Name="Points" NumberOfComponents="3" format="ascii" RangeMin="0" RangeMax="1.4142135624">
          0 0 0 0.1 0 0
          0.1 0.1 0 0.05 0 0
          0.1 0.05 0 0.05 0.05 0
          0 0.1 0 0.05 0.1 0
          0 0.05 0 0.2 0 0
          0.2 0.1 0 0.15 0 0
          0.2 0.05 0 0.15 0.05 0
          0.15 0.1 0 0.3 0 0
          0.3 0.1 0 0.25 0 0
          0.3 0.05 0 0.25 0.05 0
          0.25 0.1 0 0.4 0 0
          0.4 0.1 0 0.35 0 0
          0.4 0.05 0 0.35 0.05 0
          0.35 0.1 0 0.5 0 0
          0.5 0.1 0 0.45 0 0
          0.5 0.05 0 0.45 0.05 0
          0.45 0.1 0 0.6 0 0
          0.6 0.1 0 0.55 0 0
          0.6 0.05 0 0.55 0.05 0
          0.55 0.1 0 0.7 0 0
          0.7 0.1 0 0.65 0 0
          0.7 0.05 0 0.65 0.05 0
          0.65 0.1 0 0.8 0 0
          0.8 0.1 0 0.75 0 0
          0.8 0.05 0 0.75 0.05 0
          0.75 0.1 0 0.9 0 0
          0.9 0.1 0 0.85 0 0
          0.9 0.05 0 0.85 0.05 0
          0.85 0.1 0 1 0 0
          1 0.1 0 0.95 0 0
          1 0.05 0 0.95 0.05 0
          0.95 0.1 0 0.1 0.2 0
          0.1 0.15 0 0.05 0.15 0
          0 0.2 0 0.05 0.2 0
          0 0.15 0 0.2 0.2 0
          0.2 0.15 0 0.15 0.15 0
          0.15 0.2 0 0.3 0.2 0
          0.3 0.15 0 0.25 0.15 0
          0.25 0.2 0 0.4 0.2 0
          0.4 0.15 0 0.35 0.15 0
          0.35 0.2 0 0.5 0.2 0
          0.5 0.15 0 0.45 0.15 0
          0.45 0.2 0 0.6 0.2 0
          0.6 0.15 0 0.55 0.15 0
          0.55 0.2 0 0.7 0.2 0
          0.7 0.15 0 0.65 0.15 0
          0.65 0.2 0 0.8 0.2 0
          0.8 0.15 0 0.75 0.15 0
          0.75 0.2 0 0.9 0.2 0
          0.9 0.15 0 0.85 0.15 0
          0.85 0.2 0 1 0.2 0
          1 0.15 0 0.95 0.15 0
          0.95 0.2 0 0.1 0.3 0
          0.1 0.25 0 0.05 0.25 0
          0 0.3 0 0.05 0.3 0
          0 0.25 0 0.2 0.3 0
          0.2 0.25 0 0.15 0.25 0
          0.15 0.3 0 0.3 0.3 0
          0.3 0.25 0 0.25 0.25 0
          0.25 0.3 0 0.4 0.3 0
          0.4 0.25 0 0.35 0.25 0
          0.35 0.3 0 0.5 0.3 0
          0.5 0.25 0 0.45 0.25 0
          0.45 0.3 0 0.6 0.3 0
          0.6 0.25 0 0.55 0.25 0
          0.55 0.3 0 0.7 0.3 0
          0.7 0.25 0 0.65 0.25 0
          0.65 0.3 0 0.8 0.3 0
          0.8 0.25 0 0.75 0.25 0
          0.75 0.3 0 0.9 0.3 0
          0.9 0.25 0 0.85 0.25 0
          0.85 0.3 0 1 0.3 0
          1 0.25 0 0.95 0.25 0
          0.95 0.3 0 0.1 0.4 0
          0.1 0.35 0 0.05 0.35 0
          0 0.4 0 0.05 0.4 0
          0 0.35 0 0.2 0.4 0
          0.2 0.35 0 0.15 0.35 0
          0.15 0.4 0 0.3 0.4 0
          0.3 0.35 0 0.25 0.35 0
          0.25 0.4 0 0.4 0.4 0
          0.4 0.35 0 0.35 0.35 0
          0.35 0.4 0 0.5 0.4 0
          0.5 0.35 0 0.45 0.35 0
          0.45 0.4 0 0.6 0.4 0
          0.6 0.35 0 0.55 0.35 0
          0.55 0.4 0 0.7 0.4 0
          0.7 0.35 0 0.65 0.35 0
          0.65 0.4 0 0.8 0.4 0
          0.8 0.35 0 0.75 0.35 0
          0.75 0.4 0 0.9 0.4 0
          0.9 0.35 0 0.85 0.35 0
          0.85 0.4 0 1 0.4 0
          1 0.35 0 0.95 0.35 0
          0.95 0.4 0 0.1 0.5 0
          0.1 0.45 0 0.05 0.45 0
          0 0.5 0 0.05 0.5 0
          0 0.45 0 0.2 0.5 0
          0.2 0.45 0 0.15 0.45 0
          0.15 0.5 0 0.3 0.5 0
          0.3 0.45 0 0.25 0.45 0
          0.25 0.5 0 0.4 0.5 0
          0.4 0.45 0 0.35 0.45 0
          0.35 0.5 0 0.5 0.5 0
          0.5 0.45 0 0.45 0.45 0
          0.45 0.5 0 0.6 0.5 0
          0.6 0.45 0 0.55 0.45 0
          0.55 0.5 0 0.7 0.5 0
          0.7 0.45 0 0.65 0.45 0
          0.65 0.5 0 0.8 0.5 0
          0.8 0.45 0 0.75 0.45 0
          0.75 0.5 0 0.9 0.5 0
          0.9 0.45 0 0.85 0.45 0
          0.85 0.5 0 1 0.5 0
          1 0.45 0 0.95 0.45 0
          0.95 0.5 0 0.1 0.6 0
          0.1 0.55 0 0.05 0.55 0
          0 0.6 0 0.05 0.6 0
          0 0.55 0 0.2 0.6 0
          0.2 0.55 0 0.15 0.55 0
          0.15 0.6 0 0.3 0.6 0
          0.3 0.55 0 0.25 0.55 0
          0.25 0.6 0 0.4 0.6 0
          0.4 0.55 0 0.35 0.55 0
          0.35 0.6 0 0.5 0.6 0
          0.5 0.55 0 0.45 0.55 0
          0.45 0.6 0 0.6 0.6 0
          0.6 0.55 0 0.55 0.55 0
          0.55 0.6 0 0.7 0.6 0
          0.7 0.55 0 0.65 0.55 0
          0.65 0.6 0 0.8 0.6 0
          0.8 0.55 0 0.75 0.55 0
          0.75 0.6 0 0.9 0.6 0
          0.9 0.55 0 0.85 0.55 0
          0.85 0.6 0 1 0.6 0
          1 0.55 0 0.95 0.55 0
          0.95 0.6 0 0.1 0.7 0
          0.1 0.65 0 0.05 0.65 0
          0 0.7 0 0.05 0.7 0
          0 0.65 0 0.2 0.7 0
          0.2 0.65 0 0.15 0.65 0
          0.15 0.7 0 0.3 0.7 0
          0.3 0.65 0 0.25 0.65 0
          0.25 0.7 0 0.4 0.7 0
          0.4 0.65 0 0.35 0.65 0
          0.35 0.7 0 0.5 0.7 0
          0.5 0.65 0 0.45 0.65 0
          0.45 0.7 0 0.6 0.7 0
          0.6 0.65 0 0.55 0.65 0
          0.55 0.7 0 0.7 0.7 0
          0.7 0.65 0 0.65 0.65 0
          0.65 0.7 0 0.8 0.7 0
          0.8 0.65 0 0.75 0.65 0
          0.75 0.7 0 0.9 0.7 0
          0.9 0.65 0 0.85 0.65 0
          0.85 0.7 0 1 0.7 0
          1 0.65 0 0.95 0.65 0
          0.95 0.7 0 0.1 0.8 0
          0.1 0.75 0 0.05 0.75 0
          0 0.8 0 0.05 0.8 0
          0 0.75 0 0.2 0.8 0
          0.2 0.75 0 0.15 0.75 0
          0.15 0.8 0 0.3 0.8 0
          0.3 0.75 0 0.25 0.75 0
          0.25 0.8 0 0.4 0.8 0
          0.4 0.75 0 0.35 0.75 0
          0.35 0.8 0 0.5 0.8 0
          0.5 0.75 0 0.45 0.75 0
          0.45 0.8 0 0.6 0.8 0
          0.6 0.75 0 0.55 0.75 0
          0.55 0.8 0 0.7 0.8 0
          0.7 0.75 0 0.65 0.75 0
          0.65 0.8 0 0.8 0.8 0
          0.8 0.75 0 0.75 0.75 0
          0.75 0.8 0 0.9 0.8 0
          0.9 0.75 0 0.85 0.75 0
          0.85 0.8 0 1 0.8 0
          1 0.75 0 0.95 0.75 0
          0.95 0.8 0 0.1 0.9 0
          0.1 0.85 0 0.05 0.85 0
          0 0.9 0 0.05 0.9 0
          0 0.85 0 0.2 0.9 0
          0.2 0.85 0 0.15 0.85 0
          0.15 0.9 0 0.3 0.9 0
          0.3 0.85 0 0.25 0.85 0
          0.25 0.9 0 0.4 0.9 0
          0.4 0.85 0 0.35 0.85 0
          0.35 0.9 0 0.5 0.9 0
          0.5 0.85 0 0.45 0.85 0
          0.45 0.9 0 0.6 0.9 0
          0.6 0.85 0 0.55 0.85 0
          0.55 0.9 0 0.7 0.9 0
          0.7 0.85 0 0.65 0.85 0
          0.65 0.9 0 0.8 0.9 0
          0.8 0.85 0 0.75 0.85 0
          0.75 0.9 0 0.9 0.9 0
          0.9 0.85 0 0.85 0.85 0
          0.85 0.9 0 1 0.9 0
          1 0.85 0 0.95 0.85 0
          0.95 0.9 0 0.1 1 0
          0.1 0.95 0 0.05 0.95 0
          0 1 0 0.05 1 0
          0 0.95 0 0.2 1 0
          0.2 0.95 0 0.15 0.95 0
          0.15 1 0 0.3 1 0
          0.3 0.95 0 0.25 0.95 0
          0.25 1 0 0.4 1 0
          0.4 0.95 0 0.35 0.95 0
          0.35 1 0 0.5 1 0
          0.5 0.95 0 0.45 0.95 0
          0.45 1 0 0.6 1 0
          0.6 0.95 0 0.55 0.95 0
          0.55 1 0 0.7 1 0
          0.7 0.95 0 0.65 0.95 0
          0.65 1 0 0.8 1 0
          0.8 0.95 0 0.75 0.95 0
          0.75 1 0 0.9 1 0
          0.9 0.95 0 0.85 0.95 0
          0.85 1 0 1 1 0
          1 0.95 0 0.95 0.95 0
          0.95 1 0
        </DataArray>
      </Points>
      <Cells>
        <DataArray type="Int64" Name="connectivity" format="ascii" RangeMin="0" RangeMax="440">
          0 1 2 3 4 5
          0 2 6 5 7 8
          1 9 10 11 12 13
          1 10 2 13 14 4
          9 15 16 17 18 19
          9 16 10 19 20 12
          15 21 22 23 24 25
          15 22 16 25 26 18
          21 27 28 29 30 31
          21 28 22 31 32 24
          27 33 34 35 36 37
          27 34 28 37 38 30
          33 39 40 41 42 43
          33 40 34 43 44 36
          39 45 46 47 48 49
          39 46 40 49 50 42
          45 51 52 53 54 55
          45 52 46 55 56 48
          51 57 58 59 60 61
          51 58 52 61 62 54
          6 2 63 7 64 65
          6 63 66 65 67 68
          2 10 69 14 70 71
          2 69 63 71 72 64
          10 16 73 20 74 75
          10 73 69 75 76 70
          16 22 77 26 78 79
          16 77 73 79 80 74
          22 28 81 32 82 83
          22 81 77 83 84 78
          28 34 85 38 86 87
          28 85 81 87 88 82
          34 40 89 44 90 91
          34 89 85 91 92 86
          40 46 93 50 94 95
          40 93 89 95 96 90
          46 52 97 56 98 99
          46 97 93 99 100 94
          52 58 101 62 102 103
          52 101 97 103 104 98
          66 63 105 67 106 107
          66 105 108 107 109 110
          63 69 111 72 112 113
          63 111 105 113 114 106
          69 73 115 76 116 117
          69 115 111 117 118 112
          73 77 119 80 120 121
          73 119 115 121 122 116
          77 81 123 84 124 125
          77 123 119 125 126 120
          81 85 127 88 128 129
          81 127 123 129 130 124
          85 89 131 92 132 133
          85 131 127 133 134 128
          89 93 135 96 136 137
          89 135 131 137 138 132
          93 97 139 100 140 141
          93 139 135 141 142 136
          97 101 143 104 144 145
          97 143 139 145 146 140
          108 105 147 109 148 149
          108 147 150 149 151 152
          105 111 153 114 154 155
          105 153 147 155 156 148
          111 115 157 118 158 159
          111 157 153 159 160 154
          115 119 161 122 162 163
          115 161 157 163 164 158
          119 123 165 126 166 167
          119 165 161 167 168 162
          123 127 169 130 170 171
          123 169 165 171 172 166
          127 131 173 134 174 175
          127 173 169 175 176 170
          131 135 177 138 178 179
          131 177 173 179 180 174
          135 139 181 142 182 183
          135 181 177 183 184 178
          139 143 185 146 186 187
          139 185 181 187 188 182
          150 147 189 151 190 191
          150 189 192 191 193 194
          147 153 195 156 196 197
          147 195 189 197 198 190
          153 157 199 160 200 201
          153 199 195 201 202 196
          157 161 203 164 204 205
          157 203 199 205 206 200
          161 165 207 168 208 209
          161 207 203 209 210 204
          165 169 211 172 212 213
          165 211 207 213 214 208
          169 173 215 176 216 217
          169 215 211 217 218 212
          173 177 219 180 220 221
          173 219 215 221 222 216
          177 181 223 184 224 225
          177 223 219 225 226 220
          181 185 227 188 228 229
          181 227 223 229 230 224
          192 189 231 193 232 233
          192 231 234 233 235 236
          189 195 237 198 238 239
          189 237 231 239 240 232
          195 199 241 202 242 243
          195 241 237 243 244 238
          199 203 245 206 246 247
          199 245 241 247 248 242
          203 207 249 210 250 251
          203 249 245 251 252 246
          207 211 253 214 254 255
          207 253 249 255 256 250
          211 215 257 218 258 259
          211 257 253 259 260 254
          215 219 261 222 262 263
          215 261 257 263 264 258
          219 223 265 226 266 267
          219 265 261 267 268 262
          223 227 269 230 270 271
          223 269 265 271 272 266
          234 231 273 235 274 275
          234 273 276 275 277 278
          231 237 279 240 280 281
          231 279 273 281 282 274
          237 241 283 244 284 285
          237 283 279 285 286 280
          241 245 287 248 288 289
          241 287 283 289 290 284
          245 249 291 252 292 293
          245 291 287 293 294 288
          249 253 295 256 296 297
          249 295 291 297 298 292
          253 257 299 260 300 301
          253 299 295 301 302 296
          257 261 303 264 304 305
          257 303 299 305 306 300
          261 265 307 268 308 309
          261 307 303 309 310 304
          265 269 311 272 312 313
          265 311 307 313 314 308
          276 273 315 277 316 317
          276 315 318 317 319 320
          273 279 321 282 322 323
          273 321 315 323 324 316
          279 283 325 286 326 327
          279 325 321 327 328 322
          283 287 329 290 330 331
          283 329 325 331 332 326
          287 291 333 294 334 335
          287 333 329 335 336 330
          291 295 337 298 338 339
          291 337 333 339 340 334
          295 299 341 302 342 343
          295 341 337 343 344 338
          299 303 345 306 346 347
          299 345 341 347 348 342
          303 307 349 310 350 351
          303 349 345 351 352 346
          307 311 353 314 354 355
          307 353 349 355 356 350
          318 315 357 319 358 359
          318 357 360 359 361 362
          315 321 363 324 364 365
          315 363 357 365 366 358
          321 325 367 328 368 369
          321 367 363 369 370 364
          325 329 371 332 372 373
          325 371 367 373 374 368
          329 333 375 336 376 377
          329 375 371 377 378 372
          333 337 379 340 380 381
          333 379 375 381 382 376
          337 341 383 344 384 385
          337 383 379 385 386 380
          341 345 387 348 388 389
          341 387 383 389 390 384
          345 349 391 352 392 393
          345 391 387 393 394 388
          349 353 395 356 396 397
          349 395 391 397 398 392
          360 357 399 361 400 401
          360 399 402 401 403 404
          357 363 405 366 406 407
          357 405 399 407 408 400
          363 367 409 370 410 411
          363 409 405 411 412 406
          367 371 413 374 414 415
          367 413 409 415 416 410
          371 375 417 378 418 419
          371 417 413 419 420 414
          375 379 421 382 422 423
          375 421 417 423 424 418
          379 383 425 386 426 427
          379 425 421 427 428 422
          383 387 429 390 430 431
          383 429 425 431 432 426
          387 391 433 394 434 435
          387 433 429 435 436 430
          391 395 437 398 438 439
          391 437 433 439 440 434
        </DataArray>
        <DataArray type="Int64" Name="offsets" format="ascii" RangeMin="6" RangeMax="1200">
          6 12 18 24 30 36
          42 48 54 60 66 72
          78 84 90 96 102 108
          114 120 126 132 138 144
          150 156 162 168 174 180
          186 192 198 204 210 216
          222 228 234 240 246 252
          258 264 270 276 282 288
          294 300 306 312 318 324
          330 336 342 348 354 360
          366 372 378 384 390 396
          402 408 414 420 426 432
          438 444 450 456 462 468
          474 480 486 492 498 504
          510 516 522 528 534 540
          546 552 558 564 570 576
          582 588 594 600 606 612
          618 624 630 636 642 648
          654 660 666 672 678 684
          690 696 702 708 714 720
          726 732 738 744 750 756
          762 768 774 780 786 792
          798 804 810 816 822 828
          834 840 846 852 858 864
          870 876 882 888 894 900
          906 912 918 924 930 936
          942 948 954 960 966 972
          978 984 990 996 1002 1008
          1014 1020 1026 1032 1038 1044
          1050 1056 1062 1068 1074 1080
          1086 1092 1098 1104 1110 1116
          1122 1128 1134 1140 1146 1152
          1158 1164 1170 1176 1182 1188
          1194 1200
        </DataArray>
        <DataArray type="UInt8" Name="types" format="ascii" RangeMin="22" RangeMax="22">
          22 22 22 22 22 22
          22 22 22 22 22 22
          22 22 22 22 22 22
          22 22 22 22 22 22
          22 22 22 22 22 22
          22 22 22 22 22 22
          22 22 22 22 22 22
          22 22 22 22 22 22
          22 22 22 22 22 22
          22 22 22 22 22 22
          22 22 22 22 22 22
          22 22 22 22 22 22
          22 22 22 22 22 22
          22 22 22 22 22 22
          22 22 22 22 22 22
          22 22 22 22 22 22
          22 22 22 22 22 22
          22 22 22 22 22 22
          22 22 22 22 22 22
          22 22 22 22 22 22
          22 22 22 22 22 22
          22 22 22 22 22 22
          22 22 22 22 22 22
          22 22 22 22 22 22
          22 22 22 22 22 22
          22 22 22 22 22 22
          22 22 22 22 22 22
          22 22 22 22 22 22
          22 22 22 22 22 22
          22 22 22 22 22 22
          22 22 22 22 22 22
          22 22 22 22 22 22
          22 22 22 22 22 22
          22 22
        </DataArray>
      </Cells>
    </Piece>
  </UnstructuredGrid>
</VTKFile>
