<?xml version="1.0"?>
<VTKFile type="UnstructuredGrid" version="0.1" byte_order="LittleEndian" compressor="vtkZLibDataCompressor">
  <UnstructuredGrid>
    <Piece NumberOfPoints="441" NumberOfCells="100">
      <PointData>
        <DataArray type="Float64" Name="u" format="ascii" RangeMin="-0.19533299541" RangeMax="1">
          2.1140186465e-16 -1.5212795703e-16 -0.0050558214464 2.8534043247e-17 6.6691122408e-16 -0.0019425500401
          -0.0012380569053 9.3631946017e-16 -0.00019385215806 -2.9286491328e-15 -0.019084968113 -5.0681474488e-15
          -0.0094077571061 -0.011120889769 -0.0049231768977 -6.9954478087e-15 -0.036638619125 -1.9900628278e-14
          -0.019444488979 -0.027893216151 -0.014420645978 -1.0235340295e-14 -0.050527565992 -3.4952416993e-14
          -0.027478767411 -0.044460359422 -0.023992633833 -1.1453095459e-14 -0.055731874053 -4.4119498892e-14
          -0.030501069391 -0.054457821395 -0.0298070443 -1.0230688257e-14 -0.050515605374 -4.410698356e-14
          -0.027471182615 -0.054449175871 -0.029801217113 -6.9950651115e-15 -0.036638693172 -3.4937420276e-14
          -0.019445476541 -0.044450446364 -0.023986371855 -2.9353788632e-15 -0.019105805584 -1.9915475023e-14
          -0.0094221773506 -0.027904994513 -0.014429667789 -1.5691161223e-16 -0.0050725597515 -5.0969733328e-15
          -0.001953259755 -0.011144712617 -0.0049393645316 2.1157601009e-16 2.6768063962e-17 6.6146116941e-16
          9.3267349923e-16 -0.0012447056391 -0.00019757765559 -0.011212281138 -1.5142791446e-16 -0.0082142482857
          -0.0030197425149 -3.7406339152e-16 -0.0021847788698 -0.037501095024 -0.028457991627 -0.023172103763
          -0.017248871603 -0.067299290391 -0.052389224464 -0.052700315528 -0.040565830576 -0.089939217616
          -0.070964460911 -0.080102507482 -0.062867544222 -0.09827595654 -0.077873640344 -0.096211583335
          -0.076169888868 -0.089886323784 -0.070940411551 -0.096179683786 -0.076154145177 -0.067249206093
          -0.052376141983 -0.080041091328 -0.062842877897 -0.037496768153 -0.028475209301 -0.052671096519
          -0.040568310046 -0.011227770902 -0.008233386377 -0.023186475931 -0.017273976138 -1.5448655013e-16
          -3.8376989828e-16 -0.0030278363691 -0.0021929626765 -0.017134859584 -2.5327188098e-16 -0.014145397584
          -0.0046811918327 -7.8129585476e-16 -0.0038310075025 -0.055368668747 -0.046402162531 -0.034854792751
          -0.028982470996 -0.096319273289 -0.081858314869 -0.076540797633 -0.064610506711 -0.12610827444
          -0.10823387793 -0.11329519671 -0.096827784185 -0.13678603291 -0.11782663251 -0.13416188795
          -0.11545704828 -0.12591308149 -0.10812608896 -0.13405205643 -0.11539484334 -0.096071011504
          -0.081733653574 -0.11304748892 -0.096695085106 -0.055222677254 -0.046347161634 -0.076328423655
          -0.064513717856 -0.017107434417 -0.014147380945 -0.034779247604 -0.028966214183 -2.5806672456e-16
          -7.982260323e-16 -0.0046803232472 -0.0038373315542 -0.023677920281 -4.5626727314e-16 -0.020296203275
          -0.0066231357144 -1.4588847515e-15 -0.0056351084494 -0.074104457939 -0.064588109462 -0.047400879994
          -0.040944434499 -0.1249181595 -0.11078121038 -0.10082658818 -0.088661718205 -0.1598007533
          -0.14351967259 -0.14502074057 -0.12952814524 -0.1718011869 -0.15504939881 -0.1689116851
          -0.1522403794 -0.15931980197 -0.14319902743 -0.1686486958 -0.15206289305 -0.12424188708
          -0.11034907935 -0.14438801386 -0.12911280672 -0.07361176893 -0.06429864596 -0.10019613879
          -0.088272562495 -0.02352258243 -0.020217710072 -0.047084543433 -0.040771704112 -4.577673151e-16
          -1.4717629806e-15 -0.0065854544447 -0.0056195441556 -0.03144192542 -5.4462982803e-16 -0.027343045468
          -0.0087865840232 -1.7949947174e-15 -0.0075283813916 -0.093419870846 -0.083874633757 -0.061590488271
          -0.054380214562 -0.14926204592 -0.13815232138 -0.1236140619 -0.11272513317 -0.18366355228
          -0.17385637214 -0.16954176145 -0.15892521418 -0.19458383465 -0.18573725793 -0.19205268344
          -0.18292034127 -0.18281702609 -0.17319051172 -0.19159974304 -0.18255998223 -0.14797399609
          -0.13717933344 -0.16839213955 -0.15803591755 -0.092354559527 -0.083116208591 -0.12234236223
          -0.11179086745 -0.031043681492 -0.027081839872 -0.060840070162 -0.053867039207 -5.4242371489e-16
          -1.799972039e-15 -0.0086808295721 -0.0074646363675 -0.041043322941 -1.6441390404e-15 -0.036119150074
          -0.01272469362 -4.8683828213e-15 -0.010881768813 -0.10931897247 -0.10218621193 -0.075976545211
          -0.068700675512 -0.15695892532 -0.15655082733 -0.13715558904 -0.13252466396 -0.17844571695
          -0.18652235684 -0.17043013538 -0.17456239141 -0.18367012163 -0.19533299541 -0.18261987686
          -0.19336779262 -0.17745434135 -0.18554548063 -0.18210753439 -0.19285307666 -0.15526054151
          -0.15498758143 -0.16901121087 -0.17320604248 -0.10767138741 -0.10080434771 -0.13534024188
          -0.1309284639 -0.040315569727 -0.035556029693 -0.074711494363 -0.067689726361 -1.6085931758e-15
          -4.7865133624e-15 -0.012495616325 -0.010711619851 -0.051914684459 -1.2556253895e-15 -0.046106819289
          -0.01574284443 -4.0652802531e-15 -0.013025554077 -0.10971700301 -0.11339677646 -0.0884229621
          -0.083868695088 -0.11921167833 -0.14650073667 -0.1192593466 -0.13433828211 -0.10782608939
          -0.15444088451 -0.11428316651 -0.15259975304 -0.10115794952 -0.15437187067 -0.10290432375
          -0.15458585591 -0.10744990789 -0.15363369811 -0.10273696846 -0.1541814046 -0.11818589393
          -0.14494164061 -0.11360577337 -0.15138114624 -0.10818579313 -0.11163999202 -0.11787343666
          -0.1325410455 -0.050991351403 -0.045243818449 -0.0869947006 -0.082412934938 -1.2110671513e-15
          -3.9225356802e-15 -0.015440147769 -0.012765679755 -0.060500646984 -1.1853890074e-14 -0.058617386024
          -0.03232847461 -2.9845584943e-14 -0.025594827158 -0.051588089281 -0.09217353629 -0.070582449732
          -0.084457279759 0.023911153731 -0.066947541092 -0.016469802737 -0.085369060437 0.083524180976
          -0.031020986905 0.058534786148 -0.046975117369 0.10418357765 -0.017197915249 0.099290051336
          -0.020574091553 0.08243134645 -0.031330021094 0.098691903064 -0.020774487412 0.02248019893
          -0.066968954642 0.057144781563 -0.047224967644 -0.052044018749 -0.091379767377 -0.017551121133
          -0.084968650765 -0.060074360702 -0.057784630744 -0.07034157976 -0.083417232965 -1.1723676235e-14
          -2.9413155915e-14 -0.032033733446 -0.025234365371 0.014259359695 -4.8914178976e-14 -0.046703464418
          -0.019285714301 -3.805848035e-14 -0.022125340895 0.21475430839 0.031730993352 0.093225726499
          -0.039601747017 0.37709285629 0.16861510289 0.31659523759 0.11164210614 0.45114217393
          0.24272699268 0.41999889586 0.21130213146 0.47534799299 0.2683014574 0.470208044
          0.26256789351 0.44939761945 0.2410218339 0.46935868091 0.26170414573 0.3739009449
          0.16585622803 0.41743049783 0.20892192613 0.21090751334 0.029407689229 0.31289524997
          0.10886376362 0.01270335474 -0.047103076666 0.090142221822 -0.040929421556 -4.8474871364e-14
          -3.6956185745e-14 -0.018744932875 -0.021931958903 1 0.5 0.24980671168
          1 -8.382658758e-14 0.017851489303 1 0.54424602289 1
          0.45948705235 1 0.65452065945 1 0.6071248414 1
          0.70796012372 1 0.68939243579 1 0.72185004089 1
          0.71875284321 1 0.70697814306 1 0.71823378598 1
          0.65239984122 1 0.6878801921 1 0.54131840123 1
          0.60442977669 1 0.24695656558 1 0.45619806461 0.5
          -8.4053116243e-14 1 0.016095102389
        </DataArray>
        <DataArray type="Float64" Name="v" format="ascii" RangeMin="-0.35982126452" RangeMax="0.36283073162">
          -2.1158329401e-16 -3.1049617425e-18 0.0049779692954 9.2275429533e-17 -9.0736655425e-16 0.0012204095862
          0.0019257045028 -6.7561688587e-16 0.00019806354238 1.8302788119e-16 0.0092375884366 5.2966800512e-16
          0.0024944429259 0.0076020604411 0.0020363573276 2.057798871e-16 0.0092365162958 8.3696190355e-16
          0.0025450741032 0.0097780441001 0.0026877303174 1.2170301394e-16 0.0055858513302 6.9828175168e-16
          0.0015425292051 0.007778622262 0.002158640346 -4.7401246722e-19 -6.2399600708e-06 2.5433399532e-16
          -1.5496548516e-06 0.0029137148556 0.00080783890687 -1.2190508239e-16 -0.0055877281242 -2.5707742911e-16
          -0.001542346102 -0.0029231916549 -0.00081008344873 -2.0488923831e-16 -0.009223238291 -6.9664421407e-16
          -0.0025403554471 -0.0077715443402 -0.0021556978894 -1.8250570529e-16 -0.0092309860274 -8.3338770769e-16
          -0.0024921004517 -0.0097647538046 -0.0026830179375 2.1521320918e-18 -0.0049911501098 -5.310362759e-16
          -0.001224346985 -0.00760654085 -0.0020376688946 2.1197934949e-16 -9.812052584e-17 9.0508687156e-16
          6.7054150397e-16 -0.0019385302008 -0.00020126004401 0.020315029771 2.9595546906e-15 0.011260216548
          0.010179072581 5.0212252365e-15 0.0050731382735 0.032983181942 0.019510546269 0.028256668478
          0.016347712475 0.031824003276 0.019188247239 0.03411178945 0.020424044493 0.019012947214
          0.011548865682 0.02657325224 0.016097755933 -2.497026389e-05 -1.1528434318e-05 0.0098865345093
          0.0060169832429 -0.019027011885 -0.011551022051 -0.0099264562763 -0.0060341410938 -0.031781593766
          -0.019159745469 -0.026555649925 -0.016082094841 -0.032950309588 -0.019493584876 -0.034063367271
          -0.020394803818 -0.020345631109 -0.011282991143 -0.028256224839 -0.016352118681 -2.9818504653e-15
          -5.0717614588e-15 -0.010217091854 -0.0050970345224 0.046076921642 8.5545421938e-15 0.031857773341
          0.024987859065 2.2404088245e-14 0.016736110272 0.06921945295 0.049508600228 0.06114162057
          0.043120246693 0.064427268699 0.046931588996 0.070095293206 0.050660720011 0.037809165547
          0.027810275027 0.053227466905 0.038993787014 -9.2938011454e-05 -4.7103286497e-05 0.019557921543
          0.014428485939 -0.037901561118 -0.027846213148 -0.019718380029 -0.014506680222 -0.064347415087
          -0.04686860206 -0.053230344527 -0.038976334135 -0.069097697944 -0.049442197119 -0.069969179344
          -0.050579208516 -0.04608236451 -0.031884970094 -0.061074641072 -0.043098366344 -8.5930351061e-15
          -2.2525163172e-14 -0.025035438003 -0.016783072727 0.082670182634 1.6613154206e-14 0.062840062213
          0.046386507364 4.9739762598e-14 0.034725674472 0.11767643846 0.091911805428 0.10653979113
          0.082161091695 0.1056390953 0.08406514098 0.11681286564 0.092174214798 0.060589728682
          0.048820178356 0.086154143413 0.069036300034 -0.00027858131526 -0.0001636998773 0.031100919901
          0.02516706099 -0.06093184562 -0.049003466716 -0.031600671008 -0.025455728156 -0.10553292348
          -0.083964880584 -0.086276107541 -0.069076648143 -0.11732335609 -0.091696517912 -0.11653381015
          -0.091980163423 -0.082498626172 -0.062786784354 -0.10623459558 -0.082005468473 -1.6641778391e-14
          -4.988069319e-14 -0.04635860242 -0.034753025401 0.13073849253 2.8046725599e-14 0.10520587166
          0.075535979093 8.7684027535e-14 0.059704562276 0.17694375192 0.14605284528 0.16418149832
          0.13383470606 0.15177617185 0.12849623323 0.17151136999 0.14343603826 0.084372393806
          0.072661891247 0.12162148373 0.10396669478 -0.00064368746809 -0.00043589285041 0.042848437619
          0.037115356931 -0.085254923021 -0.073229840155 -0.044029693208 -0.037906643401 -0.15171718412
          -0.12839664803 -0.12206245667 -0.10421438155 -0.17614994374 -0.14550754478 -0.17100538142
          -0.14304899055 -0.13009994377 -0.10484617123 -0.16334851223 -0.13330835858 -2.7983695697e-14
          -8.7658394185e-14 -0.07523650399 -0.059577926966 0.19289925366 4.3464948171e-14 0.1593241226
          0.11493231205 1.426686099e-13 0.093490875572 0.24061924401 0.2090193524 0.23271930194
          0.19703636845 0.19299039386 0.17396941764 0.22496512311 0.19940697441 0.10240244977
          0.094757647001 0.15070188116 0.13781564997 -0.001148541787 -0.00089318011702 0.051207503501
          0.047787559006 -0.10411664719 -0.096038564447 -0.053354520398 -0.049442582747 -0.19318722956
          -0.17400684221 -0.15173823541 -0.13852651981 -0.23923220541 -0.20793806634 -0.22429485714
          -0.19879916953 -0.19131207717 -0.15829234062 -0.23098034328 -0.19580344486 -4.3154197793e-14
          -1.4198361415e-13 -0.1140076312 -0.092943143326 0.2620229864 6.7052608526e-14 0.2281275642
          0.16654834329 2.1352766733e-13 0.13818712411 0.29085476237 0.26896724904 0.29819015927
          0.26759968808 0.20845338505 0.20598699065 0.25646289836 0.24533587676 0.10333541896
          0.10587495798 0.15635982433 0.15797789813 -0.0015191296584 -0.0013931835706 0.050697550776
          0.052442750291 -0.10582571276 -0.10805206954 -0.053600584833 -0.055073834696 -0.20923059917
          -0.20645972807 -0.15813757947 -0.15941748383 -0.28916730192 -0.26736347647 -0.25601518618
          -0.24472383055 -0.25929679047 -0.22595420991 -0.29562061416 -0.26539273953 -6.6298235497e-14
          -2.1151455211e-13 -0.16468759181 -0.13683214177 0.34375203129 1.0532471683e-13 0.29765721504
          0.24623872678 3.4216408055e-13 0.19888346853 0.27910324954 0.2994706481 0.33592229479
          0.32224068672 0.16868919784 0.1971209721 0.22121593188 0.25193004605 0.075993264904
          0.093774092788 0.1202320882 0.14427130145 -0.0013109649606 -0.0015216803375 0.036173201645
          0.045451711216 -0.078373321108 -0.09641216696 -0.03873512468 -0.048399960685 -0.17011650028
          -0.19829392563 -0.12226921323 -0.14632798121 -0.2781340895 -0.29802576221 -0.22165599369
          -0.25190456231 -0.33998702447 -0.29435772988 -0.3332614067 -0.31949113758 -1.0391213129e-13
          -3.3800893383e-13 -0.24322424413 -0.19647313158 0.25970453776 2.4918050655e-13 0.36283073162
          0.32407133444 5.2471517318e-13 0.28100673776 0.14178243781 0.22485609957 0.18254748252
          0.30765392638 0.068108953348 0.12521726288 0.10293962316 0.16839615134 0.028370798887
          0.052650785163 0.044710510464 0.086214398552 -0.00050690446986 -0.00092917899083 0.013718623378
          0.024680982954 -0.029388676776 -0.054409226736 -0.014739287085 -0.026506333875 -0.069140957817
          -0.12662363563 -0.045741002457 -0.087888542718 -0.14212066968 -0.22464560649 -0.10375293139
          -0.16916884672 -0.25833522823 -0.35982126452 -0.18246366646 -0.30610885646 -2.4714093877e-13
          -5.1794748751e-13 -0.32110192612 -0.27781012275 2.595204257e-14 1.2988918525e-13 0.094352856693
          6.4610581423e-13 1.1754617495e-12 0.31178533361 1.4971842124e-14 0.058261614971 -9.3509600749e-15
          0.042478039786 -8.6550321833e-16 0.017681420199 4.0255810035e-14 0.041259235368 1.3682724325e-15
          0.0090995318193 -3.052579005e-15 0.010315692291 2.7320779948e-17 -0.0001179283992 4.2870913734e-15
          0.005077545479 -1.3331159244e-15 -0.0093594104046 -4.1487663303e-15 -0.0053422774255 8.8256217954e-16
          -0.018026545751 3.3243025857e-15 -0.010547214395 -1.4761296663e-14 -0.05827052159 -4.0246046276e-14
          -0.041632867799 -2.6743377503e-14 -0.094793770358 9.4310661807e-15 -0.042604824721 -1.2835535756e-13
          -1.1659837647e-12 -6.4275960796e-13 -0.31005876225
        </DataArray>
        <DataArray type="Float64" Name="p" format="ascii" RangeMin="-83.703142449" RangeMax="82.978416381">
          -0.31920507584 -0.4094504602 -0.32119360981 -0.22753285263 -0.36432776802 -0.365322035
          -0.27436323122 -0.27336896424 -0.31934549962 -0.54776930802 -0.38688568687 -0.47860988411
          -0.46732749745 -0.35403964834 -0.41632476623 -0.50715400544 -0.34953800969 -0.52746165673
          -0.42834600756 -0.36821184828 -0.44783675251 -0.2946144875 -0.1982781501 -0.40088424647
          -0.2464463188 -0.2739080799 -0.33739616318 0.0219404764 0.021925328867 -0.13633700555
          0.021932902634 -0.088176410617 -0.11225670808 0.33808587851 0.24181298373 0.18001317746
          0.28994943112 0.1318691563 0.15594116688 0.55004193905 0.39260728535 0.44406390878
          0.4713246122 0.31721013454 0.38063702166 0.59089672574 0.43007501137 0.5704693324
          0.51048586856 0.41134114836 0.49090524038 0.45320283252 0.36488118983 0.52204977913
          0.40904201117 0.3974781006 0.45976393986 0.36291532538 0.27111407826 0.40805907895
          0.31701470182 0.31799763404 0.3630283565 -0.26369899222 -0.057988239334 -0.29244630101
          -0.16084361578 -0.14276054598 -0.2176034235 -0.35223813225 -0.36956190956 -0.30796856223
          -0.33100410529 -0.31718809397 -0.33336305183 -0.33471311311 -0.35146248069 -0.17707550813
          -0.18767682912 -0.24713180105 -0.26051994047 0.022864778612 0.022395053739 -0.077105364759
          -0.082640887688 0.22213447594 0.23197372983 0.12249962728 0.12718439179 0.36107379627
          0.37684054081 0.29160413611 0.30440713532 0.39593670559 0.41300585848 0.37850525093
          0.39492319965 0.30832212582 0.33660165782 0.35212941571 0.37480375815 0.10261961067
          0.18686684447 0.20547086825 0.26173425114 -0.32159070265 -0.0063194416042 -0.29264484743
          -0.16395507213 -0.032153840469 -0.16239934395 -0.4412261209 -0.39673212657 -0.38140841177
          -0.344688487 -0.39217738024 -0.3546827371 -0.41670175057 -0.37570743184 -0.21561504558
          -0.19634527686 -0.30389621291 -0.27551400698 0.026160266966 0.024512522789 -0.094727389308
          -0.085916377033 0.26639200905 0.2442632425 0.14627613801 0.13438788264 0.43987826054
          0.40047602841 0.3531351348 0.32236963545 0.48737687585 0.44165679072 0.46362756819
          0.42106640956 0.36893848337 0.33863030459 0.42815767961 0.39014354766 0.05486780253
          0.078743706601 0.21190314295 0.2086870056 -0.56437403977 -0.15291224227 -0.44298237121
          -0.35864314102 -0.07961584194 -0.26129910657 -0.70633256133 -0.57377934111 -0.63535330055
          -0.50838085616 -0.59195589892 -0.49206663958 -0.64914423013 -0.53292299035 -0.31764325166
          -0.26662914862 -0.45479957529 -0.3793478941 0.034125837672 0.030143052319 -0.14175870699
          -0.11824304815 0.38255197356 0.32447199131 0.20833890562 0.17730752181 0.64943987805
          0.5446590693 0.5159959258 0.4345655303 0.758368729 0.62287280242 0.70390430353
          0.58376593586 0.61733751346 0.49313799841 0.68785312123 0.55800540042 0.20893654875
          0.13190217564 0.4131370311 0.31252008703 -1.1406878266 -0.54580527677 -0.85253093317
          -0.84324655168 -0.34935875952 -0.60094484635 -1.2060204063 -0.95617648381 -1.1733541164
          -0.90435370849 -0.95209440574 -0.77202515233 -1.079057406 -0.86410081807 -0.48913138421
          -0.40338731793 -0.72061289498 -0.58770623513 0.049685368359 0.041905603016 -0.21972300792
          -0.18074085746 0.58180889165 0.4821804326 0.31574713 0.26204301781 1.0290074267
          0.8392236524 0.8054081592 0.6607020425 1.2685330394 1.0134508842 1.1487702331
          0.92633726829 1.1998656645 0.90860158899 1.2341993519 0.96102623658 0.61339715295
          0.41116685085 0.90663140873 0.65988421992 -2.0983479394 -1.5530898411 -1.619517883
          -1.8257188903 -1.0494475589 -1.334482721 -2.0878734623 -1.6469469343 -2.0931107009
          -1.6332324087 -1.4871056531 -1.2196000294 -1.7874895577 -1.4332734819 -0.73287037171
          -0.61100087796 -1.1099880124 -0.9153004537 0.073981690405 0.061833529382 -0.32944434065
          -0.27458367429 0.86963725353 0.72572307259 0.47180947197 0.39377830099 1.5947554237
          1.3118814252 1.2321963386 1.0188022489 2.1642280368 1.7163805381 1.8794917303
          1.5141309817 2.1635538002 1.6817097324 2.1638909185 1.6990451352 1.627020906
          1.1202090295 1.8952873531 1.4009593809 -4.23449554 -3.0476514885 -3.1664217397
          -3.6410735142 -2.3003706648 -2.7333962023 -3.310743417 -2.6993084397 -3.7726194785
          -2.9328650897 -2.2143167541 -1.8507112036 -2.7625300856 -2.2750098216 -1.0003618436
          -0.86661610767 -1.6073392989 -1.3586636556 0.10143561122 0.08770865081 -0.44946311621
          -0.38945372843 1.187219556 1.0284284048 0.64432758361 0.55806852779 2.3586546636
          1.9767050437 1.7729371098 1.5025667242 3.3994565878 2.7818423123 2.8790556257
          2.379273678 4.2840759997 3.2238149 3.8417662937 3.0028286061 3.1142428742
          2.3706318901 3.6991594369 2.797223395 -6.7854470876 -7.6020048025 -5.5099713138
          -7.1937259451 -5.3248281455 -5.4173997297 -5.3233254724 -4.3170344447 -6.05438628
          -4.9135028793 -2.7837087152 -2.4990127346 -4.0535170938 -3.4080235897 -1.227662228
          -1.1140120358 -2.0056854716 -1.8065123852 0.11540290223 0.10841925672 -0.5561296629
          -0.50279638955 1.4425020807 1.3148608183 0.77895249145 0.71164003753 2.9452944972
          2.6519745804 2.1938982889 1.9834176994 5.4089899197 4.4042232538 4.1771422085
          3.5280989171 6.8071765583 5.545626279 6.108083239 4.9749247664 7.6095881209
          5.3619154975 7.2083823396 5.4537708883 -16.231843912 -15.633282207 -11.5086455
          -15.932563059 -11.617643505 -11.563144502 -5.2283580985 -5.2758417854 -10.730101005
          -8.3922436426 -3.1658157083 -2.9747622117 -4.1970869034 -4.1253019986 -1.0471116959
          -1.137386962 -2.1064637021 -2.0560745869 0.1058055203 0.11060421126 -0.47065308783
          -0.51339137536 1.2343610492 1.3384315649 0.67008328473 0.72451788809 3.3072821366
          3.1262883169 2.2708215929 2.2323599409 5.2646763584 5.3368331391 4.2859792475
          4.231560728 16.138598334 11.472887446 10.701637346 8.4048602925 15.480938267
          11.545263194 15.8097683 11.50907532 -3.8952841668 -83.703142449 -10.063564039
          -43.799213308 -49.668212328 -29.865888184 -5.9782441396 -5.6033011191 -4.9367641532
          -7.8334325792 -1.0883367411 -2.1270762247 -3.5332904404 -3.8651886719 -0.80483657233
          -0.92597413414 -0.94658665671 -1.5265251794 0.085473137128 0.095639328711 -0.3596817176
          -0.41516740271 0.96820857609 1.1012848126 0.52684085661 0.59846207067 1.1729200568
          2.2401010967 1.0705643164 1.6706929546 5.9811804727 5.6229284155 3.5770502647
          3.9315147561 3.7664924538 9.9525453938 4.8738364632 7.7877369047 82.978416381
          49.229677324 43.372454418 29.591111359
        </DataArray>
      </PointData>
      <CellData>
        <DataArray type="Int32" Name="libmesh_elem_id" format="ascii" RangeMin="0" RangeMax="99">
          0 1 2 3 4 5
          6 7 8 9 10 11
          12 13 14 15 16 17
          18 19 20 21 22 23
          24 25 26 27 28 29
          30 31 32 33 34 35
          36 37 38 39 40 41
          42 43 44 45 46 47
          48 49 50 51 52 53
          54 55 56 57 58 59
          60 61 62 63 64 65
          66 67 68 69 70 71
          72 73 74 75 76 77
          78 79 80 81 82 83
          84 85 86 87 88 89
          90 91 92 93 94 95
          96 97 98 99
        </DataArray>
        <DataArray type="Int32" Name="subdomain_id" format="ascii" RangeMin="0" RangeMax="0">
          0 0 0 0 0 0
          0 0 0 0 0 0
          0 0 0 0 0 0
          0 0 0 0 0 0
          0 0 0 0 0 0
          0 0 0 0 0 0
          0 0 0 0 0 0
          0 0 0 0 0 0
          0 0 0 0 0 0
          0 0 0 0 0 0
          0 0 0 0 0 0
          0 0 0 0 0 0
          0 0 0 0 0 0
          0 0 0 0 0 0
          0 0 0 0 0 0
          0 0 0 0 0 0
          0 0 0 0
        </DataArray>
        <DataArray type="Int32" Name="processor_id" format="ascii" RangeMin="0" RangeMax="0">
          0 0 0 0 0 0
          0 0 0 0 0 0
          0 0 0 0 0 0
          0 0 0 0 0 0
          0 0 0 0 0 0
          0 0 0 0 0 0
          0 0 0 0 0 0
          0 0 0 0 0 0
          0 0 0 0 0 0
          0 0 0 0 0 0
          0 0 0 0 0 0
          0 0 0 0 0 0
          0 0 0 0 0 0
          0 0 0 0 0 0
          0 0 0 0 0 0
          0 0 0 0 0 0
          0 0 0 0
        </DataArray>
      </CellData>
      <Points>
        <DataArray type="Float64" Name="Points" NumberOfComponents="3" format="ascii" RangeMin="0" RangeMax="1.4142135624">
          0 0 0 0.1 0 0
          0.1 0.1 0 0 0.1 0
          0.05 0 0 0.1 0.05 0
          0.05 0.1 0 0 0.05 0
          0.05 0.05 0 0.2 0 0
          0.2 0.1 0 0.15 0 0
          0.2 0.05 0 0.15 0.1 0
          0.15 0.05 0 0.3 0 0
          0.3 0.1 0 0.25 0 0
          0.3 0.05 0 0.25 0.1 0
          0.25 0.05 0 0.4 0 0
          0.4 0.1 0 0.35 0 0
          0.4 0.05 0 0.35 0.1 0
          0.35 0.05 0 0.5 0 0
          0.5 0.1 0 0.45 0 0
          0.5 0.05 0 0.45 0.1 0
          0.45 0.05 0 0.6 0 0
          0.6 0.1 0 0.55 0 0
          0.6 0.05 0 0.55 0.1 0
          0.55 0.05 0 0.7 0 0
          0.7 0.1 0 0.65 0 0
          0.7 0.05 0 0.65 0.1 0
          0.65 0.05 0 0.8 0 0
          0.8 0.1 0 0.75 0 0
          0.8 0.05 0 0.75 0.1 0
          0.75 0.05 0 0.9 0 0
          0.9 0.1 0 0.85 0 0
          0.9 0.05 0 0.85 0.1 0
          0.85 0.05 0 1 0 0
          1 0.1 0 0.95 0 0
          1 0.05 0 0.95 0.1 0
          0.95 0.05 0 0.1 0.2 0
          0 0.2 0 0.1 0.15 0
          0.05 0.2 0 0 0.15 0
          0.05 0.15 0 0.2 0.2 0
          0.2 0.15 0 0.15 0.2 0
          0.15 0.15 0 0.3 0.2 0
          0.3 0.15 0 0.25 0.2 0
          0.25 0.15 0 0.4 0.2 0
          0.4 0.15 0 0.35 0.2 0
          0.35 0.15 0 0.5 0.2 0
          0.5 0.15 0 0.45 0.2 0
          0.45 0.15 0 0.6 0.2 0
          0.6 0.15 0 0.55 0.2 0
          0.55 0.15 0 0.7 0.2 0
          0.7 0.15 0 0.65 0.2 0
          0.65 0.15 0 0.8 0.2 0
          0.8 0.15 0 0.75 0.2 0
          0.75 0.15 0 0.9 0.2 0
          0.9 0.15 0 0.85 0.2 0
          0.85 0.15 0 1 0.2 0
          1 0.15 0 0.95 0.2 0
          0.95 0.15 0 0.1 0.3 0
          0 0.3 0 0.1 0.25 0
          0.05 0.3 0 0 0.25 0
          0.05 0.25 0 0.2 0.3 0
          0.2 0.25 0 0.15 0.3 0
          0.15 0.25 0 0.3 0.3 0
          0.3 0.25 0 0.25 0.3 0
          0.25 0.25 0 0.4 0.3 0
          0.4 0.25 0 0.35 0.3 0
          0.35 0.25 0 0.5 0.3 0
          0.5 0.25 0 0.45 0.3 0
          0.45 0.25 0 0.6 0.3 0
          0.6 0.25 0 0.55 0.3 0
          0.55 0.25 0 0.7 0.3 0
          0.7 0.25 0 0.65 0.3 0
          0.65 0.25 0 0.8 0.3 0
          0.8 0.25 0 0.75 0.3 0
          0.75 0.25 0 0.9 0.3 0
          0.9 0.25 0 0.85 0.3 0
          0.85 0.25 0 1 0.3 0
          1 0.25 0 0.95 0.3 0
          0.95 0.25 0 0.1 0.4 0
          0 0.4 0 0.1 0.35 0
          0.05 0.4 0 0 0.35 0
          0.05 0.35 0 0.2 0.4 0
          0.2 0.35 0 0.15 0.4 0
          0.15 0.35 0 0.3 0.4 0
          0.3 0.35 0 0.25 0.4 0
          0.25 0.35 0 0.4 0.4 0
          0.4 0.35 0 0.35 0.4 0
          0.35 0.35 0 0.5 0.4 0
          0.5 0.35 0 0.45 0.4 0
          0.45 0.35 0 0.6 0.4 0
          0.6 0.35 0 0.55 0.4 0
          0.55 0.35 0 0.7 0.4 0
          0.7 0.35 0 0.65 0.4 0
          0.65 0.35 0 0.8 0.4 0
          0.8 0.35 0 0.75 0.4 0
          0.75 0.35 0 0.9 0.4 0
          0.9 0.35 0 0.85 0.4 0
          0.85 0.35 0 1 0.4 0
          1 0.35 0 0.95 0.4 0
          0.95 0.35 0 0.1 0.5 0
          0 0.5 0 0.1 0.45 0
          0.05 0.5 0 0 0.45 0
          0.05 0.45 0 0.2 0.5 0
          0.2 0.45 0 0.15 0.5 0
          0.15 0.45 0 0.3 0.5 0
          0.3 0.45 0 0.25 0.5 0
          0.25 0.45 0 0.4 0.5 0
          0.4 0.45 0 0.35 0.5 0
          0.35 0.45 0 0.5 0.5 0
          0.5 0.45 0 0.45 0.5 0
          0.45 0.45 0 0.6 0.5 0
          0.6 0.45 0 0.55 0.5 0
          0.55 0.45 0 0.7 0.5 0
          0.7 0.45 0 0.65 0.5 0
          0.65 0.45 0 0.8 0.5 0
          0.8 0.45 0 0.75 0.5 0
          0.75 0.45 0 0.9 0.5 0
          0.9 0.45 0 0.85 0.5 0
          0.85 0.45 0 1 0.5 0
          1 0.45 0 0.95 0.5 0
          0.95 0.45 0 0.1 0.6 0
          0 0.6 0 0.1 0.55 0
          0.05 0.6 0 0 0.55 0
          0.05 0.55 0 0.2 0.6 0
          0.2 0.55 0 0.15 0.6 0
          0.15 0.55 0 0.3 0.6 0
          0.3 0.55 0 0.25 0.6 0
          0.25 0.55 0 0.4 0.6 0
          0.4 0.55 0 0.35 0.6 0
          0.35 0.55 0 0.5 0.6 0
          0.5 0.55 0 0.45 0.6 0
          0.45 0.55 0 0.6 0.6 0
          0.6 0.55 0 0.55 0.6 0
          0.55 0.55 0 0.7 0.6 0
          0.7 0.55 0 0.65 0.6 0
          0.65 0.55 0 0.8 0.6 0
          0.8 0.55 0 0.75 0.6 0
          0.75 0.55 0 0.9 0.6 0
          0.9 0.55 0 0.85 0.6 0
          0.85 0.55 0 1 0.6 0
          1 0.55 0 0.95 0.6 0
          0.95 0.55 0 0.1 0.7 0
          0 0.7 0 0.1 0.65 0
          0.05 0.7 0 0 0.65 0
          0.05 0.65 0 0.2 0.7 0
          0.2 0.65 0 0.15 0.7 0
          0.15 0.65 0 0.3 0.7 0
          0.3 0.65 0 0.25 0.7 0
          0.25 0.65 0 0.4 0.7 0
          0.4 0.65 0 0.35 0.7 0
          0.35 0.65 0 0.5 0.7 0
          0.5 0.65 0 0.45 0.7 0
          0.45 0.65 0 0.6 0.7 0
          0.6 0.65 0 0.55 0.7 0
          0.55 0.65 0 0.7 0.7 0
          0.7 0.65 0 0.65 0.7 0
          0.65 0.65 0 0.8 0.7 0
          0.8 0.65 0 0.75 0.7 0
          0.75 0.65 0 0.9 0.7 0
          0.9 0.65 0 0.85 0.7 0
          0.85 0.65 0 1 0.7 0
          1 0.65 0 0.95 0.7 0
          0.95 0.65 0 0.1 0.8 0
          0 0.8 0 0.1 0.75 0
          0.05 0.8 0 0 0.75 0
          0.05 0.75 0 0.2 0.8 0
          0.2 0.75 0 0.15 0.8 0
          0.15 0.75 0 0.3 0.8 0
          0.3 0.75 0 0.25 0.8 0
          0.25 0.75 0 0.4 0.8 0
          0.4 0.75 0 0.35 0.8 0
          0.35 0.75 0 0.5 0.8 0
          0.5 0.75 0 0.45 0.8 0
          0.45 0.75 0 0.6 0.8 0
          0.6 0.75 0 0.55 0.8 0
          0.55 0.75 0 0.7 0.8 0
          0.7 0.75 0 0.65 0.8 0
          0.65 0.75 0 0.8 0.8 0
          0.8 0.75 0 0.75 0.8 0
          0.75 0.75 0 0.9 0.8 0
          0.9 0.75 0 0.85 0.8 0
          0.85 0.75 0 1 0.8 0
          1 0.75 0 0.95 0.8 0
          0.95 0.75 0 0.1 0.9 0
          0 0.9 0 0.1 0.85 0
          0.05 0.9 0 0 0.85 0
          0.05 0.85 0 0.2 0.9 0