<?xml version="1.0"?>
<VTKFile type="UnstructuredGrid" version="0.1" byte_order="LittleEndian" compressor="vtkZLibDataCompressor">
  <UnstructuredGrid>
    <Piece NumberOfPoints="441" NumberOfCells="100">
      <PointData>
        <DataArray type="Float64" Name="u" format="ascii" RangeMin="-0.19156718353" RangeMax="1">
          1.8512099464e-16 -1.9986690682e-16 -0.0045427317884 8.5160167349e-18 5.0427880038e-16 -0.0018201551404
          -0.0011310932202 7.6768884762e-16 -0.00021121518192 -2.6854734855e-15 -0.016783375065 -4.8525250628e-15
          -0.0084036374203 -0.0098755667083 -0.0044841692698 -6.2001458189e-15 -0.03179235313 -1.7852442075e-14
          -0.017025364683 -0.024348767181 -0.012736165744 -8.9496174901e-15 -0.043509161613 -3.0730578065e-14
          -0.023820133275 -0.038409207117 -0.020884837081 -9.9742671055e-15 -0.047867090492 -3.8477455434e-14
          -0.026355789771 -0.046806004916 -0.025777760614 -8.9443627804e-15 -0.043492416843 -3.8464364834e-14
          -0.023810096461 -0.046795312131 -0.025771031606 -6.1973393156e-15 -0.031781375556 -3.0710276056e-14
          -0.017019886628 -0.03839158282 -0.020874381603 -2.6887750888e-15 -0.016790702107 -1.7854458058e-14
          -0.0084098556219 -0.024347233625 -0.012737055956 -2.0309637535e-16 -0.0045524663834 -4.8701927194e-15
          -0.0018267826522 -0.0098878869184 -0.0044933775767 1.8514701854e-16 7.2115451102e-18 5.00169856e-16
          7.6463197029e-16 -0.0011353249462 -0.00021376412834 -0.0098308562577 -1.4146062535e-16 -0.0072519507958
          -0.0026570317724 -3.8022084885e-16 -0.0019432735621 -0.032615163045 -0.024807810612 -0.020232267181
          -0.01512641044 -0.058121080998 -0.04523932365 -0.045666408495 -0.03518371854 -0.077298447251
          -0.060913354004 -0.068990688216 -0.054103106577 -0.084315298396 -0.066703766111 -0.082586062705
          -0.065283214174 -0.077243489461 -0.060884162865 -0.08255380551 -0.065265348809 -0.058062440386
          -0.045213897394 -0.068924871625 -0.05407009236 -0.032596603576 -0.024809102141 -0.045625061007
          -0.035171016533 -0.0098374235457 -0.0072623182332 -0.020232981248 -0.01513747237 -1.4370540264e-16
          -3.8724811511e-16 -0.0026617401224 -0.00194828787 -0.015179059251 -2.2714751508e-16 -0.012420025035
          -0.0041482406819 -7.0311240225e-16 -0.0033656493281 -0.04884260467 -0.040520991656 -0.030812600819
          -0.025379138427 -0.084571388284 -0.071090303309 -0.067363013265 -0.056263558442 -0.1103206099
          -0.09361270348 -0.099276314569 -0.083900574854 -0.11949445411 -0.1017538984 -0.11724964203
          -0.099752083988 -0.11014390565 -0.093510627829 -0.11715067112 -0.09969381167 -0.084344082059
          -0.070967901882 -0.099051576708 -0.083773743011 -0.04870449959 -0.040459284476 -0.067166471685
          -0.056164618824 -0.015149899357 -0.012415149124 -0.030737847899 -0.025353791543 -2.3090573458e-16
          -7.1613093973e-16 -0.0041455789486 -0.0033688567262 -0.021711002163 -4.2530354173e-16 -0.018248956336
          -0.006079003141 -1.3351985615e-15 -0.0050701572544 -0.067717947283 -0.057863653114 -0.043389056294
          -0.036746441895 -0.11368722432 -0.098829002104 -0.091956077669 -0.079269118214 -0.14494022644
          -0.12758847484 -0.13173704713 -0.11533251287 -0.15562520794 -0.13765519538 -0.15306170697
          -0.13521257168 -0.14451509128 -0.12730370615 -0.15282944808 -0.13505526517 -0.11309027726
          -0.098444379727 -0.13117858367 -0.11496381177 -0.067284206129 -0.05760440683 -0.091400482163
          -0.078922203364 -0.021574818719 -0.018177457375 -0.04311094099 -0.036590465959 -4.2646155257e-16
          -1.3450591518e-15 -0.0060457878135 -0.0050553052239 -0.030204893136 -5.2190838949e-16 -0.025640549079
          -0.0084385169453 -1.6759634931e-15 -0.0070511834448 -0.089521690986 -0.078421754294 -0.05910263054
          -0.050931234524 -0.14259719105 -0.12867380881 -0.11827860597 -0.10519777731 -0.17502549862
          -0.1614165436 -0.1617492508 -0.14776560998 -0.18527009381 -0.17224507686 -0.18289815012
          -0.16968473245 -0.17426727599 -0.16082560248 -0.18249257814 -0.16936503292 -0.14144730996
          -0.12781277664 -0.16072169225 -0.14697789677 -0.088577199749 -0.07775453531 -0.11714676979
          -0.10437326627 -0.029855882278 -0.025413276739 -0.058440564486 -0.05048170739 -5.2085377641e-16
          -1.6821296211e-15 -0.0083468986691 -0.0069963819834 -0.0412547633 -1.6451329568e-15 -0.035530402508
          -0.012776897358 -4.8130301619e-15 -0.010708811191 -0.11013131494 -0.1004196854 -0.076443113262
          -0.067543894456 -0.15862850225 -0.15368092251 -0.13838095324 -0.13016839541 -0.18090322185
          -0.18295618262 -0.17252791775 -0.17128329276 -0.18647169202 -0.19156718353 -0.18532442378
          -0.18964046345 -0.17998755088 -0.18206947243 -0.18485167368 -0.1891735841 -0.15706548612
          -0.15226663432 -0.17122087 -0.17005476047 -0.10862524014 -0.099178290957 -0.13671521972
          -0.1287286074 -0.040595206465 -0.035029482751 -0.07529108975 -0.066639903664 -1.6136932461e-15
          -4.7423282938e-15 -0.012570318035 -0.010558279807 -0.053833870566 -1.2943709029e-15 -0.047192500617
          -0.016277647701 -4.1451313262e-15 -0.013324848551 -0.1159733027 -0.11700027374 -0.092335738689
          -0.086100475275 -0.13038465992 -0.15304907239 -0.12801074158 -0.13942535783 -0.12282132635
          -0.16334178293 -0.12760189444 -0.16046104597 -0.11758259218 -0.16418078264 -0.11896952097
          -0.16415995044 -0.12243666877 -0.16257656373 -0.11879682794 -0.16377686081 -0.12937504031
          -0.15158055894 -0.12692758851 -0.15931201719 -0.11449962996 -0.11535858978 -0.12666505864
          -0.13773885792 -0.052955188713 -0.046392940219 -0.09096800651 -0.084744324287 -1.2533415857e-15
          -4.0180955446e-15 -0.015991157071 -0.01308637933 -0.063368887774 -1.1910439587e-14 -0.061186700309
          -0.033123477783 -3.0052043649e-14 -0.026313482212 -0.060969361309 -0.10051226528 -0.076443386376
          -0.089686424862 0.0071721233195 -0.08177126632 -0.029590863852 -0.097004490778 0.061139765175
          -0.050835302402 0.038614005525 -0.064607675178 0.079739114005 -0.0388498143 0.075348106052
          -0.041772000951 0.060162677508 -0.051078206553 0.074810447037 -0.041936994637 0.005910828017
          -0.081713963792 0.037372300286 -0.064780937334 -0.061303050288 -0.099690906144 -0.030517589217
          -0.096549174052 -0.062910506586 -0.060364528553 -0.0761234046 -0.088641230076 -1.1780221274e-14
          -2.9630239099e-14 -0.032821200981 -0.025960772648 0.012290606927 -4.8927872543e-14 -0.049399220331
          -0.019800653059 -3.8287452737e-14 -0.022883867774 0.20769947766 0.022726885271 0.089005660649
          -0.04515502247 0.36396323197 0.15233760458 0.30647111031 0.098950796591 0.43331756753
          0.22085245015 0.40421745144 0.19186613564 0.45581617345 0.24439384634 0.4510862724
          0.23915076181 0.4316869969 0.21928520575 0.45029245353 0.23835694936 0.36096954349
          0.14979865032 0.4018088825 0.18967082165 0.20406874662 0.020605546257 0.30298487805
          0.096394768491 0.010830845852 -0.049724856882 0.086096494188 -0.046337184101 -4.8473932058e-14
          -3.7152897416e-14 -0.019220894546 -0.022661638866 1 0.5 0.24894120826
          1 -8.3511271146e-14 0.017730514468 1 0.54046050722 1
          0.45740688642 1 0.64705713374 1 0.60147948813 1
          0.69765140978 1 0.68031521232 1 0.71049827013 1
          0.707641622 1 0.69672053903 1 0.70714619269 1
          0.64504234412 1 0.67887783048 1 0.53766756836 1
          0.59890700423 1 0.24616556936 1 0.45423995741 0.5
          -8.3703127388e-14 1 0.016004491217
        </DataArray>
        <DataArray type="Float64" Name="v" format="ascii" RangeMin="-0.35580326868" RangeMax="0.35864979823">
          -1.8552755829e-16 1.4801084904e-17 0.0044700265672 1.4539694662e-16 -7.4164845197e-16 0.0011143543482
          0.0018054762141 -5.1347490458e-16 0.0002148849135 1.6901493575e-16 0.0080071116107 5.1929139785e-16
          0.0021706176618 0.0066847503124 0.001804560908 1.8235867914e-16 0.0078521520223 7.5080315015e-16
          0.0021676168895 0.0083831493515 0.0023093674715 1.0596659162e-16 0.0046947782114 6.1101247472e-16
          0.0012976556064 0.0065687559349 0.0018247966126 -4.0982034224e-19 -6.9608058127e-06 2.1992245771e-16
          -1.7944824804e-06 0.0024409018627 0.0006769685836 -1.061994001e-16 -0.0046994495229 -2.2239623077e-16
          -0.0012984393808 -0.0024522372027 -0.00067983827692 -1.8168241483e-16 -0.0078422497121 -6.0995473251e-16
          -0.0021641146823 -0.0065652440613 -0.001823115435 -1.6852183905e-16 -0.0079993082637 -7.4788993203e-16
          -0.0021680616 -0.0083715639946 -0.0023053912972 -1.5438915881e-17 -0.004477189188 -5.1981793411e-16
          -0.0011165368539 -0.0066848259978 -0.0018045769121 1.8571252929e-16 -1.4951790111e-16 7.3967011483e-16
          5.0957569057e-16 -0.0018137378516 -0.00021702532849 0.01791801441 2.7172183119e-15 0.01000238809
          0.0091194734772 4.8179408071e-15 0.0046243079396 0.028449056334 0.016853729338 0.024619750152
          0.014292064858 0.027018960858 0.016286623155 0.029169987691 0.017472109283 0.015979319224
          0.0096976789323 0.022430051717 0.013578754229 -2.7377676976e-05 -1.3604100468e-05 0.0082842979313
          0.0050368005788 -0.016001988012 -0.0097063418964 -0.0083301594921 -0.0050588311834 -0.026987168378
          -0.016265391201 -0.022423312636 -0.013570862441 -0.028414258098 -0.016835102624 -0.029127743284
          -0.017446816442 -0.017931168354 -0.010013750078 -0.024607895274 -0.014288603906 -2.7322789996e-15
          -4.8521128283e-15 -0.009142582573 -0.0046391484471 0.040514628156 7.6466639405e-15 0.028005082601
          0.022157480939 2.0183558538e-14 0.014877969443 0.059909600606 0.042721163856 0.053324892678
          0.037534374386 0.055011339623 0.039916852349 0.060233280137 0.043377013096 0.031979842095
          0.023425461352 0.045205674749 0.032982880947 -9.0839871748e-05 -4.8982252108e-05 0.016495285072
          0.012118354922 -0.032078199648 -0.023471285573 -0.016654356155 -0.012202054696 -0.054950490627
          -0.039869159604 -0.045222677764 -0.032979559361 -0.059794026829 -0.042655391866 -0.060123734975
          -0.043306222842 -0.040496889142 -0.028010455272 -0.053248198339 -0.037500131185 -7.6718126128e-15
          -2.0263563064e-14 -0.022181285449 -0.014904868992 0.073440342839 1.4886872518e-14 0.055441415565
          0.041439651179 4.4491768262e-14 0.030843982438 0.1031563732 0.079961820195 0.094029639177
          0.071979875875 0.091411683738 0.072187814152 0.10171216401 0.079644181763 0.051924212284
          0.041530063102 0.07414809631 0.058968861593 -0.00025595716701 -0.00015385172344 0.026574041931
          0.021347711073 -0.05224541206 -0.04170982493 -0.027035023871 -0.021621053298 -0.091329461213
          -0.072109921132 -0.074272421159 -0.059020084692 -0.10283665742 -0.079763397298 -0.101468763
          -0.079475180512 -0.073263754016 -0.055369518657 -0.093741417119 -0.071823585787 -1.4901537053e-14
          -4.4575467277e-14 -0.041393992825 -0.030847383792 0.11852125674 2.5620226716e-14 0.094308684438
          0.068826759685 7.931090656e-14 0.053777133486 0.15835751628 0.12924130006 0.14793003195
          0.11922642185 0.13393756685 0.11221283546 0.15240415354 0.12606579623 0.073645113451
          0.062811796112 0.10667448914 0.090278416403 -0.00058090103539 -0.00039453528073 0.037277344389
          0.03198508935 -0.07444643806 -0.063331142987 -0.038344633431 -0.032702654425 -0.1338948527
          -0.11213420098 -0.10708090736 -0.090511944787 -0.15764520782 -0.12875027491 -0.15195657496
          -0.12572483597 -0.11793523318 -0.093966726465 -0.14717533829 -0.11874257014 -2.5556651314e-14
          -7.9248835662e-14 -0.068545402954 -0.053645217644 0.17971147624 4.0783538993e-14 0.14628488442
          0.10762110477 1.3227862127e-13 0.08627424285 0.22086720224 0.1893849132 0.21532053248
          0.17978727304 0.17426747742 0.15526220661 0.20479286539 0.17930176455 0.091251405993
          0.083567361628 0.13509310514 0.12218484935 -0.0010393997197 -0.00080471229572 0.045449888158
          0.041993879136 -0.092806013077 -0.08472460674 -0.047393755117 -0.043485804637 -0.17445147042
          -0.15530105648 -0.13603645922 -0.12283024224 -0.21960984224 -0.18840930124 -0.20418896409
          -0.17875690819 -0.17827013706 -0.14534798872 -0.21374176631 -0.17867152551 -4.0503491986e-14
          -1.3164625568e-13 -0.10678325621 -0.085774122701 0.25079950616 6.48110639e-14 0.21552759352
          0.16037037356 2.034498802e-13 0.13119331309 0.27398181685 0.25012637822 0.2833332744
          0.25098396168 0.19253342299 0.18818929013 0.23926116767 0.22612490276 0.093915351898
          0.095314472029 0.14312912683 0.14316777895 -0.0013897312048 -0.0012672993181 0.045858327487
          0.047005245776 -0.096198315551 -0.097298221192 -0.048515526278 -0.049399518437 -0.19325245619
          -0.18862474932 -0.1447632752 -0.14448284508 -0.2724342289 -0.24866141026 -0.23885540903
          -0.22556874033 -0.24829548411 -0.21354418734 -0.2809723195 -0.24896750507 -6.412648943e-14
          -2.0163386708e-13 -0.15866773482 -0.12996292427 0.33702531105 1.041731146e-13 0.28846095337
          0.24271928396 3.3518636782e-13 0.19388801463 0.26861908802 0.2854709807 0.32679301812
          0.30996289617 0.15875085224 0.1838968435 0.21048123045 0.23763911482 0.070129740195
          0.085963751601 0.11198100665 0.13328927109 -0.0012165887972 -0.0014039794264 0.033169148333
          0.041446004486 -0.072341702739 -0.088404821504 -0.035547159447 -0.044168295855 -0.16009189195
          -0.18499658575 -0.11388110086 -0.13520008032 -0.26772000746 -0.28414475075 -0.21090598039
          -0.23763217952 -0.33347218507 -0.28539455414 -0.32429183732 -0.30741516839 -1.0284434056e-13
          -3.3135785067e-13 -0.23987620008 -0.19165616172 0.25770325212 2.4905216864e-13 0.35864979823
          0.32320531089 5.2245520485e-13 0.27898881017 0.1383790595 0.21806665459 0.17964501171
          0.30181334189 0.064844438522 0.11874488171 0.099422047061 0.1614119372 0.026443933393
          0.04883097609 0.041996175769 0.080838736943 -0.00048011932259 -0.00087148413137 0.012729365789
          0.022722074925 -0.027408342526 -0.050481195947 -0.013696029588 -0.0244336241 -0.065835720019
          -0.12008363914 -0.042976592646 -0.082417290665 -0.13873102925 -0.21789655464 -0.10021571944
          -0.16216499176 -0.25641779705 -0.35580326868 -0.17961328685 -0.30037735709 -2.4705597499e-13
          -5.1596884233e-13 -0.32031817183 -0.27593713797 2.5943391177e-14 1.2997171008e-13 0.093826772092
          6.4642038438e-13 1.1756390386e-12 0.31166448881 1.4914571318e-14 0.057311843604 -9.5563883314e-15
          0.041661844174 -9.2839326723e-16 0.016757812761 3.9998889184e-14 0.040266365745 1.3316862304e-15
          0.0085548456153 -3.2662038839e-15 0.0095436059851 2.362675108e-17 -0.00011316111769 4.2031569595e-15
          0.0047958734358 -1.3001452279e-15 -0.008801219525 -4.0870199576e-15 -0.0050491635296 9.4368916354e-16
          -0.017089124478 3.5258981952e-15 -0.0097617194726 -1.470078183e-14 -0.057316805891 -3.9981884979e-14
          -0.040626216943 -2.6746503827e-14 -0.094295494973 9.6197908727e-15 -0.041803208783 -1.2843910379e-13
          -1.166225924e-12 -6.4311653889e-13 -0.3099663406
        </DataArray>
        <DataArray type="Float64" Name="p" format="ascii" RangeMin="-83.74398805" RangeMax="83.034635527">
          -0.34640909458 -0.42501794949 -0.34821511532 -0.26636392191 -0.38571352203 -0.3866165324
          -0.30728951861 -0.30638650824 -0.34650152032 -0.5330840716 -0.39551035382 -0.47905101054
          -0.46429721271 -0.37186273457 -0.42545687255 -0.47739211978 -0.34522768799 -0.50523809569
          -0.41130990388 -0.3703690209 -0.4378035583 -0.27079873041 -0.19086154275 -0.3740954251
          -0.23083013658 -0.26804461537 -0.32107002023 0.025655536442 0.025605298126 -0.12257159699
          0.025630417284 -0.082628122313 -0.10259985965 0.32175637193 0.24181027741 0.17370595419
          0.28178332467 0.13370778777 0.15370687098 0.52780049617 0.39576607764 0.42477843405
          0.46178328691 0.31878817753 0.37178330579 0.58357189087 0.44608776943 0.55568619352
          0.51482983015 0.42092692354 0.48830655853 0.47598470725 0.39917290567 0.52977829906
          0.43757880646 0.42263033755 0.4762043183 0.39738688345 0.31729486046 0.43668579535
          0.35734087195 0.35823388306 0.39745983921 -0.30847589668 -0.12992235511 -0.328345506
          -0.2191991259 -0.19814313851 -0.26324432225 -0.37631209794 -0.38591122588 -0.34239399731
          -0.35712836594 -0.32672733866 -0.33597751332 -0.3515197183 -0.3609443696 -0.17826297407
          -0.18456225841 -0.25249515637 -0.26026988587 0.026278080536 0.025941689331 -0.075992446769
          -0.079310284541 0.23029672757 0.23605350249 0.12828740405 0.13099759591 0.37783184251
          0.38679896008 0.30406428504 0.31142623128 0.4272445938 0.43666618162 0.40253821816
          0.41173257085 0.36014944866 0.37966117716 0.39369702123 0.40816367939 0.1816970671
          0.24949596378 0.27092325788 0.31457857047 -0.37924062714 -0.10130285132 -0.34385826191
          -0.24027173923 -0.11561260322 -0.22973543256 -0.47494051575 -0.42562630684 -0.42709057144
          -0.38474228438 -0.40972611896 -0.36822672881 -0.44233331735 -0.39692651783 -0.22197782317
          -0.20012039862 -0.31585197106 -0.28417356372 0.028714230551 0.027496155544 -0.096631796308
          -0.086312121538 0.27820962452 0.25425317604 0.15346192753 0.14087466579 0.46357218625
          0.42070201438 0.37089090538 0.33747759521 0.52760460933 0.47742460157 0.49558839779
          0.44906330797 0.43292202095 0.39653573481 0.48026331514 0.43698016819 0.1560897601
          0.1688934136 0.29450589053 0.2827145742 -0.6231627722 -0.2491302275 -0.50120169967
          -0.43614649985 -0.17521653941 -0.33820911954 -0.74282372632 -0.60888212103 -0.68299324926
          -0.55504191035 -0.61339098506 -0.51155855201 -0.67810735569 -0.56022033652 -0.32751785295
          -0.27474783806 -0.470454419 -0.39315319503 0.034888747542 0.031801489047 -0.1463145527
          -0.12147317451 0.39464365724 0.33642664088 0.21476620239 0.18411406496 0.67460716456
          0.5690896754 0.5346254109 0.45275815814 0.7997542292 0.66367941927 0.73718069688
          0.61638454734 0.6810647868 0.55699340388 0.740409508 0.61033641157 0.30966602821
          0.23287789416 0.49536540751 0.39493564902 -1.1877148783 -0.61655193741 -0.90543882527
          -0.90213340788 -0.43284108246 -0.66913995386 -1.2394317247 -0.9911277255 -1.2135733015
          -0.94828327538 -0.97503359016 -0.79421228761 -1.1072326574 -0.89267000655 -0.50206381614
          -0.41479083455 -0.73854870315 -0.60450156108 0.047782718716 0.041335733129 -0.22714054871
          -0.18672755071 0.59211436667 0.49337901196 0.3199485427 0.26735737254 1.0520281104
          0.86331763749 0.82207123855 0.67834832472 1.3044244616 1.0520893454 1.178226286
          0.95770349145 1.2501253836 0.96559508521 1.2772749226 1.0088422153 0.68646204018
          0.4980640342 0.9682937119 0.7318295597 -2.126148252 -1.5773992178 -1.6569315652
          -1.8517737349 -1.0969755776 -1.3769535714 -2.1160043118 -1.6777180182 -2.1210762819
          -1.6673247917 -1.5114012239 -1.243217407 -1.8137027678 -1.4604677126 -0.74911300512
          -0.62558841063 -1.1302571145 -0.93440290882 0.069466383168 0.058624550942 -0.33982331098
          -0.28348192984 0.87860742224 0.73536089446 0.4740369027 0.3969927227 1.6158187289
          1.3339234197 1.2472130756 1.0346421571 2.1928918884 1.748658175 1.9043553087
          1.5412907973 2.1934144546 1.7217699191 2.1931531715 1.735214047 1.6525497423
          1.1695058912 1.9229820984 1.4456379052 -4.246931825 -3.0256842018 -3.1865400385
          -3.6363080134 -2.3015417098 -2.7440408741 -3.3375571016 -2.7267807067 -3.7922444633
          -2.9566603726 -2.2427254156 -1.8770633197 -2.7901412586 -2.3019220132 -1.0207623113
          -0.88493765821 -1.6317438635 -1.381000489 0.096045936907 0.082756160037 -0.4623581872
          -0.40109074909 1.1992303801 1.0389189012 0.64763815849 0.5608375306 2.3840529409
          1.9999358349 1.7916416605 1.519427368 3.4276043535 2.8102481209 2.9058286472
          2.4050919779 4.2999212732 3.2466678639 3.8637628133 3.0284579924 3.0950601314
          2.3738049368 3.6974907023 2.8102364004 -6.8008955927 -7.5639790657 -5.5239137088
          -7.1824373292 -5.2948316337 -5.4093726713 -5.3598176997 -4.3486874007 -6.0803566462
          -4.9363005547 -2.8238773426 -2.5333013791 -4.0918475211 -3.4409943899 -1.2553499695
          -1.1380561404 -2.0396136561 -1.8356787598 0.11175639265 0.10390116478 -0.57179678844
          -0.51707748782 1.465822251 1.3325263156 0.78878932185 0.71821374017 2.987922214
          2.6859875774 2.2268722325 2.0092569465 5.4532014674 4.4404029104 4.2205618407
          3.5631952439 6.8303737323 5.5651475027 6.1417875998 5.0027752066 7.5801365592
          5.3375983453 7.2052551457 5.451372924 -16.272437273 -15.639131139 -11.536666433
          -15.955784206 -11.601555102 -11.569110768 -5.2945955879 -5.3272066438 -10.783516431
          -8.4319365384 -3.2350630646 -3.0294702036 -4.2648293263 -4.1783384237 -1.0912405721
          -1.1732952708 -2.1631518183 -2.1013827372 0.1049540122 0.10835520243 -0.49314327992
          -0.53247003418 1.2797310891 1.3727766701 0.69234255065 0.74056593625 3.3841158453
          3.1860190297 2.3319234672 2.2793978499 5.3450945282 5.3991479978 4.3646051868
          4.2925835137 16.193976219 11.512174976 10.769535374 8.4556614867 15.500989187
          11.540562873 15.847482703 11.526368924 -3.9726284222 -83.74398805 -10.122532848
          -43.858308236 -49.691559595 -29.907046221 -6.110442468 -5.7025190279 -5.0415354451
          -7.9125259379 -1.2185687552 -2.2268159099 -3.6645056116 -3.9646674689 -0.88510010125
          -0.98817033665 -1.0518344282 -1.6074931233 0.086062537693 0.095508274949 -0.39951878178
          -0.44633103085 1.0517617521 1.1657464206 0.56891214489 0.63062734777 1.3126332255
          2.3483745354 1.1821974888 1.757060478 6.1268560038 5.735975266 3.7197446147
          4.0421749007 3.8589458708 10.026461045 4.9929009373 7.8812181554 83.034635527
          49.267812357 43.446790699 29.647136701
        </DataArray>
      </PointData>
      <CellData>
        <DataArray type="Int32" Name="libmesh_elem_id" format="ascii" RangeMin="0" RangeMax="99">
          0 1 2 3 4 5
          6 7 8 9 10 11
          12 13 14 15 16 17
          18 19 20 21 22 23
          24 25 26 27 28 29
          30 31 32 33 34 35
          36 37 38 39 40 41
          42 43 44 45 46 47
          48 49 50 51 52 53
          54 55 56 57 58 59
          60 61 62 63 64 65
          66 67 68 69 70 71
          72 73 74 75 76 77
          78 79 80 81 82 83
          84 85 86 87 88 89
          90 91 92 93 94 95
          96 97 98 99
        </DataArray>
        <DataArray type="Int32" Name="subdomain_id" format="ascii" RangeMin="0" RangeMax="0">
          0 0 0 0 0 0
          0 0 0 0 0 0
          0 0 0 0 0 0
          0 0 0 0 0 0
          0 0 0 0 0 0
          0 0 0 0 0 0
          0 0 0 0 0 0
          0 0 0 0 0 0
          0 0 0 0 0 0
          0 0 0 0 0 0
          0 0 0 0 0 0
          0 0 0 0 0 0
          0 0 0 0 0 0
          0 0 0 0 0 0
          0 0 0 0 0 0
          0 0 0 0 0 0
          0 0 0 0
        </DataArray>
        <DataArray type="Int32" Name="processor_id" format="ascii" RangeMin="0" RangeMax="0">
          0 0 0 0 0 0
          0 0 0 0 0 0
          0 0 0 0 0 0
          0 0 0 0 0 0
          0 0 0 0 0 0
          0 0 0 0 0 0
          0 0 0 0 0 0
          0 0 0 0 0 0
          0 0 0 0 0 0
          0 0 0 0 0 0
          0 0 0 0 0 0
          0 0 0 0 0 0
          0 0 0 0 0 0
          0 0 0 0 0 0
          0 0 0 0 0 0
          0 0 0 0 0 0
          0 0 0 0
        </DataArray>
      </CellData>
      <Points>
        <DataArray type="Float64" Name="Points" NumberOfComponents="3" format="ascii" RangeMin="0" RangeMax="1.4142135624">
          0 0 0 0.1 0 0
          0.1 0.1 0 0 0.1 0
          0.05 0 0 0.1 0.05 0
          0.05 0.1 0 0 0.05 0
          0.05 0.05 0 0.2 0 0
          0.2 0.1 0 0.15 0 0
          0.2 0.05 0 0.15 0.1 0
          0.15 0.05 0 0.3 0 0
          0.3 0.1 0 0.25 0 0
          0.3 0.05 0 0.25 0.1 0
          0.25 0.05 0 0.4 0 0
          0.4 0.1 0 0.35 0 0
          0.4 0.05 0 0.35 0.1 0
          0.35 0.05 0 0.5 0 0
          0.5 0.1 0 0.45 0 0
          0.5 0.05 0 0.45 0.1 0
          0.45 0.05 0 0.6 0 0
          0.6 0.1 0 0.55 0 0
          0.6 0.05 0 0.55 0.1 0
          0.55 0.05 0 0.7 0 0
          0.7 0.1 0 0.65 0 0
          0.7 0.05 0 0.65 0.1 0
          0.65 0.05 0 0.8 0 0
          0.8 0.1 0 0.75 0 0
          0.8 0.05 0 0.75 0.1 0
          0.75 0.05 0 0.9 0 0
          0.9 0.1 0 0.85 0 0
          0.9 0.05 0 0.85 0.1 0
          0.85 0.05 0 1 0 0
          1 0.1 0 0.95 0 0
          1 0.05 0 0.95 0.1 0
          0.95 0.05 0 0.1 0.2 0
          0 0.2 0 0.1 0.15 0
          0.05 0.2 0 0 0.15 0
          0.05 0.15 0 0.2 0.2 0
          0.2 0.15 0 0.15 0.2 0
          0.15 0.15 0 0.3 0.2 0
          0.3 0.15 0 0.25 0.2 0
          0.25 0.15 0 0.4 0.2 0
          0.4 0.15 0 0.35 0.2 0
          0.35 0.15 0 0.5 0.2 0
          0.5 0.15 0 0.45 0.2 0
          0.45 0.15 0 0.6 0.2 0
          0.6 0.15 0 0.55 0.2 0
          0.55 0.15 0 0.7 0.2 0
          0.7 0.15 0 0.65 0.2 0
          0.65 0.15 0 0.8 0.2 0
          0.8 0.15 0 0.75 0.2 0
          0.75 0.15 0 0.9 0.2 0
          0.9 0.15 0 0.85 0.2 0
          0.85 0.15 0 1 0.2 0
          1 0.15 0 0.95 0.2 0
          0.95 0.15 0 0.1 0.3 0
          0 0.3 0 0.1 0.25 0
          0.05 0.3 0 0 0.25 0
          0.05 0.25 0 0.2 0.3 0
          0.2 0.25 0 0.15 0.3 0
          0.15 0.25 0 0.3 0.3 0
          0.3 0.25 0 0.25 0.3 0
          0.25 0.25 0 0.4 0.3 0
          0.4 0.25 0 0.35 0.3 0
          0.35 0.25 0 0.5 0.3 0
          0.5 0.25 0 0.45 0.3 0
          0.45 0.25 0 0.6 0.3 0
          0.6 0.25 0 0.55 0.3 0
          0.55 0.25 0 0.7 0.3 0
          0.7 0.25 0 0.65 0.3 0
          0.65 0.25 0 0.8 0.3 0
          0.8 0.25 0 0.75 0.3 0
          0.75 0.25 0 0.9 0.3 0
          0.9 0.25 0 0.85 0.3 0
          0.85 0.25 0 1 0.3 0
          1 0.25 0 0.95 0.3 0
          0.95 0.25 0 0.1 0.4 0
          0 0.4 0 0.1 0.35 0
          0.05 0.4 0 0 0.35 0
          0.05 0.35 0 0.2 0.4 0
          0.2 0.35 0 0.15 0.4 0
          0.15 0.35 0 0.3 0.4 0
          0.3 0.35 0 0.25 0.4 0
          0.25 0.35 0 0.4 0.4 0
          0.4 0.35 0 0.35 0.4 0
          0.35 0.35 0 0.5 0.4 0
          0.5 0.35 0 0.45 0.4 0
          0.45 0.35 0 0.6 0.4 0
          0.6 0.35 0 0.55 0.4 0
          0.55 0.35 0 0.7 0.4 0
          0.7 0.35 0 0.65 0.4 0
          0.65 0.35 0 0.8 0.4 0
          0.8 0.35 0 0.75 0.4 0
          0.75 0.35 0 0.9 0.4 0
          0.9 0.35 0 0.85 0.4 0
          0.85 0.35 0 1 0.4 0
          1 0.35 0 0.95 0.4 0
          0.95 0.35 0 0.1 0.5 0
          0 0.5 0 0.1 0.45 0
          0.05 0.5 0 0 0.45 0
          0.05 0.45 0 0.2 0.5 0
          0.2 0.45 0 0.15 0.5 0
          0.15 0.45 0 0.3 0.5 0
          0.3 0.45 0 0.25 0.5 0
          0.25 0.45 0 0.4 0.5 0
          0.4 0.45 0 0.35 0.5 0
          0.35 0.45 0 0.5 0.5 0
          0.5 0.45 0 0.45 0.5 0
          0.45 0.45 0 0.6 0.5 0
          0.6 0.45 0 0.55 0.5 0
          0.55 0.45 0 0.7 0.5 0
          0.7 0.45 0 0.65 0.5 0
          0.65 0.45 0 0.8 0.5 0
          0.8 0.45 0 0.75 0.5 0
          0.75 0.45 0 0.9 0.5 0
          0.9 0.45 0 0.85 0.5 0
          0.85 0.45 0 1 0.5 0
          1 0.45 0 0.95 0.5 0
          0.95 0.45 0 0.1 0.6 0
          0 0.6 0 0.1 0.55 0
          0.05 0.6 0 0 0.55 0
          0.05 0.55 0 0.2 0.6 0
          0.2 0.55 0 0.15 0.6 0
          0.15 0.55 0 0.3 0.6 0
          0.3 0.55 0 0.25 0.6 0
          0.25 0.55 0 0.4 0.6 0
          0.4 0.55 0 0.35 0.6 0
          0.35 0.55 0 0.5 0.6 0
          0.5 0.55 0 0.45 0.6 0
          0.45 0.55 0 0.6 0.6 0
          0.6 0.55 0 0.55 0.6 0
          0.55 0.55 0 0.7 0.6 0
          0.7 0.55 0 0.65 0.6 0
          0.65 0.55 0 0.8 0.6 0
          0.8 0.55 0 0.75 0.6 0
          0.75 0.55 0 0.9 0.6 0
          0.9 0.55 0 0.85 0.6 0
          0.85 0.55 0 1 0.6 0
          1 0.55 0 0.95 0.6 0
          0.95 0.55 0 0.1 0.7 0
          0 0.7 0 0.1 0.65 0
          0.05 0.7 0 0 0.65 0
          0.05 0.65 0 0.2 0.7 0
          0.2 0.65 0 0.15 0.7 0
          0.15 0.65 0 0.3 0.7 0
          0.3 0.65 0 0.25 0.7 0
          0.25 0.65 0 0.4 0.7 0
          0.4 0.65 0 0.35 0.7 0
          0.35 0.65 0 0.5 0.7 0
          0.5 0.65 0 0.45 0.7 0
          0.45 0.65 0 0.6 0.7 0
          0.6 0.65 0 0.55 0.7 0
          0.55 0.65 0 0.7 0.7 0
          0.7 0.65 0 0.65 0.7 0
          0.65 0.65 0 0.8 0.7 0
          0.8 0.65 0 0.75 0.7 0
          0.75 0.65 0 0.9 0.7 0
          0.9 0.65 0 0.85 0.7 0
          0.85 0.65 0 1 0.7 0
          1 0.65 0 0.95 0.7 0
          0.95 0.65 0 0.1 0.8 0
          0 0.8 0 0.1 0.75 0
          0.05 0.8 0 0 0.75 0
          0.05 0.75 0 0.2 0.8 0
          0.2 0.75 0 0.15 0.8 0
          0.15 0.75 0 0.3 0.8 0
          0.3 0.75 0 0.25 0.8 0
          0.25 0.75 0 0.4 0.8 0
          0.4 0.75 0 0.35 0.8 0
          0.35 0.75 0 0.5 0.8 0
          0.5 0.75 0 0.45 0.8 0
          0.45 0.75 0 0.6 0.8 0
          0.6 0.75 0 0.55 0.8 0
          0.55 0.75 0 0.7 0.8 0
          0.7 0.75 0 0.65 0.8 0
          0.65 0.75 0 0.8 0.8 0
          0.8 0.75 0 0.75 0.8 0
          0.75 0.75 0 0.9 0.8 0
          0.9 0.75 0 0.85 0.8 0
          0.85 0.75 0 1 0.8 0
          1 0.75 0 0.95 0.8 0
          0.95 0.75 0 0.1 0.9 0
          0 0.9 0 0.1 0.85 0
          0.05 0.9 0 0 0.85 0