<?xml version="1.0"?>
<VTKFile type="UnstructuredGrid" version="0.1" byte_order="LittleEndian" compressor="vtkZLibDataCompressor">
  <UnstructuredGrid>
    <Piece NumberOfPoints="441" NumberOfCells="100">
      <PointData>
        <DataArray type="Float64" Name="u" format="ascii" RangeMin="-0.19516317676" RangeMax="1">
          1.9859156749e-16 -1.6620028983e-16 -0.0047924884455 2.1415492892e-17 5.9897714372e-16 -0.0018664099283
          -0.0011794689389 8.6177673395e-16 -0.00019631000163 -2.79485941e-15 -0.017969896346 -4.9071779297e-15
          -0.0088983973913 -0.010502785732 -0.0046858341679 -6.6018767793e-15 -0.034352672461 -1.8854879714e-14
          -0.018274101632 -0.026202617758 -0.013590279335 -9.6169648962e-15 -0.047257760124 -3.2900211217e-14
          -0.025741256539 -0.041627290859 -0.022506114302 -1.0746844325e-14 -0.052080496689 -4.1419100368e-14
          -0.028542318418 -0.050902509764 -0.027901053743 -9.6117263188e-15 -0.047241869904 -4.1405650014e-14
          -0.025731695099 -0.050891967332 -0.027894336249 -6.6000071976e-15 -0.034345391699 -3.2881310522e-14
          -0.018271036567 -0.041611641828 -0.022496855786 -2.7998353828e-15 -0.017983020798 -1.8862674955e-14
          -0.0089084017777 -0.02620627073 -0.013594641302 -1.7028177689e-16 -0.0048055967342 -4.9306405235e-15
          -0.001875123963 -0.010520411748 -0.0046984795633 1.986787399e-16 1.9849945219e-17 5.940475566e-16
          8.5829102407e-16 -0.0011849114087 -0.00019949535524 -0.010579611207 -1.4502179454e-16 -0.0077516409454
          -0.0028513320379 -3.6753988184e-16 -0.0020655464329 -0.035306652706 -0.026755952764 -0.021839648041
          -0.016245541601 -0.063225201569 -0.04911172739 -0.049562353147 -0.038080672052 -0.084360252504
          -0.066395538536 -0.075187110551 -0.058870069124 -0.092123536735 -0.072807989252 -0.090205137551
          -0.071230151829 -0.084302339835 -0.066366346633 -0.090170838723 -0.071211903938 -0.063165697674
          -0.049089256013 -0.07511846737 -0.058838024517 -0.03529193516 -0.026763288777 -0.049522600071
          -0.038072841411 -0.01058980006 -0.0077659721679 -0.021845272269 -0.01626257177 -1.4770462523e-16
          -3.7602516715e-16 -0.002857553053 -0.0020720718072 -0.016319468281 -2.408911646e-16 -0.013390092353
          -0.0044572305736 -7.4032548114e-16 -0.0036250896093 -0.052677177191 -0.043864253071 -0.033179367984
          -0.027417114483 -0.091502959117 -0.077250696874 -0.072769042091 -0.061026158147 -0.11965058652
          -0.10200152634 -0.10755623267 -0.091309255437 -0.1297147535 -0.11098104658 -0.12724617937
          -0.10876742416 -0.11945639103 -0.10189071229 -0.12713722766 -0.10870392554 -0.091254111736
          -0.077119419945 -0.10730943273 -0.091172006233 -0.052527547009 -0.043800764683 -0.072554632747
          -0.060921434455 -0.01628895549 -0.013387229609 -0.033099497938 -0.027393200203 -2.4521440574e-16
          -7.5546964449e-16 -0.0044549434666 -0.0036295408237 -0.022957746951 -4.4408833475e-16 -0.019489870139
          -0.0064230244636 -1.4052262554e-15 -0.0054110546865 -0.071778640616 -0.061961212127 -0.045936554489
          -0.039298516966 -0.12083375175 -0.10612952847 -0.097599731057 -0.085001151299 -0.15439173431
          -0.13732435768 -0.14018821579 -0.1240067288 -0.16590771176 -0.14828277981 -0.1631391725
          -0.1456177744 -0.15392500441 -0.13701068144 -0.16288406688 -0.14544435132 -0.12017800844
          -0.10570614708 -0.13957473805 -0.12360051487 -0.071301348367 -0.06167622569 -0.096988900775
          -0.08461939637 -0.022807370075 -0.019411581784 -0.045630094799 -0.03912737794 -4.4542505797e-16
          -1.4167181507e-15 -0.0063863873846 -0.0053950349971 -0.031111538027 -5.3826181657e-16 -0.026782724449
          -0.0086933708751 -1.7536430077e-15 -0.0073707745257 -0.092380251763 -0.082084943643 -0.060926891496
          -0.053247267143 -0.14747925373 -0.13503741071 -0.12218952103 -0.1102539166 -0.18134346083
          -0.16975682788 -0.16745267529 -0.15525257548 -0.19207871388 -0.18128387 -0.18959081717
          -0.17855379466 -0.18052452067 -0.16911260811 -0.18915263204 -0.17820517119 -0.14623562537
          -0.13409767663 -0.16634180117 -0.15439314107 -0.091355287365 -0.081354618836 -0.1209636565
          -0.10935291292 -0.030730373633 -0.026532376157 -0.06020655097 -0.052754049875 -5.3653292308e-16
          -1.7590824647e-15 -0.0085926158194 -0.0073099004399 -0.041307005367 -1.6482577437e-15 -0.036071097752
          -0.012796785607 -4.8612330661e-15 -0.01086620628 -0.11019236976 -0.10206060034 -0.076518647667
          -0.068612006926 -0.15853714299 -0.15637781875 -0.13838499118 -0.13236991245 -0.18058379657
          -0.18634072986 -0.17232061978 -0.17438096737 -0.18602930352 -0.19516317676 -0.1849195549
          -0.19319106251 -0.1796197629 -0.18539393759 -0.18442153501 -0.19269227476 -0.15688807224
          -0.15486544803 -0.17094231347 -0.17306781142 -0.1085970192 -0.10072820362 -0.13662438661
          -0.13082790805 -0.040604661956 -0.035530484693 -0.075295530211 -0.067639264669 -1.6143073109e-15
          -4.7837515764e-15 -0.012576201092 -0.010703287822 -0.052742205967 -1.2719608432e-15 -0.04667693997
          -0.015973829097 -4.108906766e-15 -0.013184793778 -0.11239808925 -0.11524836018 -0.09010588387
          -0.085029197922 -0.12396644329 -0.14979247227 -0.12299602871 -0.13692226439 -0.11417801166
          -0.15884799986 -0.11993557004 -0.15651724448 -0.10810692696 -0.15920244439 -0.10970203048
          -0.1593069866 -0.11380463496 -0.158058922 -0.1095360262 -0.15891191323 -0.12295465368
          -0.14827041268 -0.11926699907 -0.15532775539 -0.1108937723 -0.11353680235 -0.12163211107
          -0.13516913044 -0.05183688862 -0.045838259398 -0.088703347455 -0.083611964537 -1.2287026116e-15
          -3.9721680597e-15 -0.015677588432 -0.012933187048 -0.061526346932 -1.1872655697e-14 -0.059611324396
          -0.032611188394 -2.9922970852e-14 -0.025872673889 -0.054974233608 -0.095405164032 -0.072688318794
          -0.08648221188 0.01782457054 -0.072697608437 -0.021224419886 -0.08988060427 0.075342105256
          -0.038713611996 0.051270336863 -0.053817378547 0.095227673783 -0.025610872334 0.090524957864
          -0.028807269127 0.074281901643 -0.039006861766 0.089943597806 -0.028999376103 0.016442122748
          -0.07270175436 0.049921865629 -0.054050143884 -0.055395250486 -0.094609530867 -0.022261540029
          -0.089470511308 -0.061090937979 -0.058784605339 -0.072424470243 -0.085445253875 -1.1742259233e-14
          -2.9493985248e-14 -0.032314268718 -0.025515538297 0.013635373377 -4.891546685e-14 -0.047607441771
          -0.019445128732 -3.8124507196e-14 -0.022375845333 0.21244803795 0.028655184672 0.091866313684
          -0.041482143598 0.37270543038 0.16297615287 0.31324616838 0.10727414339 0.44510226518
          0.23507721819 0.41468316596 0.20453312868 0.46869586883 0.25990977417 0.46370437232
          0.25435706161 0.44339234118 0.23341325753 0.46287151129 0.25351386558 0.36957570681
          0.16028451463 0.4121637952 0.20220832835 0.20867138925 0.026395475465 0.3096143736
          0.10456473551 0.012111596199 -0.047982977949 0.088840511565 -0.042763041782 -4.8471014598e-14
          -3.7010537865e-14 -0.018891056712 -0.022172826192 1 0.5 0.24955079541
          1 -8.3715730069e-14 0.01782079019 1 0.54305189107 1
          0.45884915429 1 0.65208713471 1 0.60531164172 1
          0.70453441086 1 0.68639996709 1 0.71805280737 1
          0.71504191667 1 0.7035675145 1 0.71452947901 1
          0.6499997486 1 0.684910263 1 0.5401687575 1
          0.60265621647 1 0.24672576739 1 0.45560124554 0.5
          -8.3929894716e-14 1 0.016074730284
        </DataArray>
        <DataArray type="Float64" Name="v" format="ascii" RangeMin="-0.3585248186" RangeMax="0.36148054453">
          -1.988261204e-16 3.3605336739e-18 0.0047166722113 1.0805049844e-16 -8.3370628138e-16 0.0011623261189
          0.0018501347825 -6.077888901e-16 0.00020037878801 1.7556804682e-16 0.0086558271603 5.1830081728e-16
          0.0023395014862 0.0071554692671 0.0019208495419 1.9469568774e-16 0.0086008900088 7.9502074682e-16
          0.0023706157302 0.0091301959495 0.0025106439699 1.1448480472e-16 0.0051815345629 6.5778747611e-16
          0.0014309008245 0.0072272442627 0.0020057074991 -4.4737164059e-19 -7.0574043853e-06 2.386470368e-16
          -1.7853134722e-06 0.0026994954885 0.00074831673481 -1.1470049716e-16 -0.0051853049568 -2.4128790016e-16
          -0.0014313139241 -0.0027107034517 -0.00075107293428 -1.9389192242e-16 -0.0085890181024 -6.5639257686e-16
          -0.0023664133626 -0.0072220444373 -0.0020034008557 -1.75047178e-16 -0.0086480693538 -7.9169317042e-16
          -0.0023369066869 -0.0091172385151 -0.0025061483327 -4.1759850095e-18 -0.0047267045654 -5.192526317e-16
          -0.0011653742622 -0.007157349832 -0.001921420445 1.9910576478e-16 -1.1312736824e-16 8.31458664e-16
          6.0315653534e-16 -0.0018607414823 -0.00020309097544 0.019168110058 2.8247737774e-15 0.010638062994
          0.0096496615014 4.8626383569e-15 0.0048319236154 0.03090469908 0.018272108679 0.026560686974
          0.01536785096 0.029664156041 0.017868207538 0.031872672494 0.019067918906 0.017660267398
          0.010715081829 0.024720462688 0.014959000265 -2.8188760378e-05 -1.3608439322e-05 0.0091723080007
          0.0055759002124 -0.017681035181 -0.01072167021 -0.0092187897492 -0.0055973343671 -0.029626255863
          -0.017842789695 -0.024709083129 -0.01494752153 -0.030868512322 -0.018253044447 -0.031825407058
          -0.019039533573 -0.019188819874 -0.010654644486 -0.026552531254 -0.015367323 -2.8435306581e-15
          -4.9053781197e-15 -0.0096799262776 -0.0048512611935 0.04356172778 8.1214903898e-15 0.030066371242
          0.023681590538 2.1294365943e-14 0.015846363882 0.065113596721 0.046453949003 0.057658091668
          0.040572369692 0.060324757539 0.043823805711 0.065777392062 0.047413112383 0.035280058064
          0.025879550389 0.049742635702 0.036341461321 -9.7336791493e-05 -5.1417105246e-05 0.018227769915
          0.013410938367 -0.035382289585 -0.025924543099 -0.018397348536 -0.013497926342 -0.060252946448
          -0.043767276702 -0.049755333178 -0.036332546868 -0.064988599995 -0.04638383605 -0.065654833139
          -0.04733379302 -0.043551467935 -0.030080320937 -0.057580283593 -0.040540681837 -8.1530544308e-15
          -2.1394598051e-14 -0.023715597484 -0.015882463336 0.078722119367 1.5853445858e-14 0.05958461972
          0.044246077848 4.7348854212e-14 0.032990492358 0.11155362391 0.086754531765 0.1012334096
          0.077731490829 0.099674893369 0.078985094413 0.11046912281 0.086796174568 0.056958639687
          0.045709501607 0.081125156379 0.064738462507 -0.00027889962769 -0.00016687365495 0.029199235859
          0.02353449738 -0.05730552737 -0.045901387894 -0.029700730265 -0.023830142783 -0.099578695211
          -0.078894128942 -0.081255191859 -0.064788626242 -0.1112036288 -0.086538099302 -0.11019853839
          -0.086607743656 -0.078537589304 -0.05951526909 -0.10092289529 -0.077566180449 -1.5873839421e-14
          -4.7458342876e-14 -0.044204273948 -0.033002837427 0.12581145914 2.7054901981e-14 0.10067698949
          0.072815548587 8.4137911056e-14 0.057219441906 0.16948824053 0.13913467289 0.15765072615
          0.12779977456 0.1446177204 0.12181439444 0.16384953567 0.13630294195 0.080051590835
          0.068613574072 0.11561427663 0.098347960238 -0.00063247286944 -0.00043096691029 0.040595263718
          0.034999899465 -0.080921003259 -0.069178259279 -0.041756503237 -0.035783061023 -0.14456540447
          -0.1217233518 -0.11605173408 -0.09859859705 -0.16871143547 -0.13859807834 -0.16335783348
          -0.13592679436 -0.12517801714 -0.10031090019 -0.15683105625 -0.12727531207 -2.6988042025e-14
          -8.4085090705e-14 -0.072513748953 -0.057082454385 0.18790452842 4.2450180824e-14 0.15422576443
          0.11216474211 1.3858052966e-13 0.090661467576 0.23310674362 0.20134834853 0.2261194702
          0.19029945329 0.18581470623 0.16663250017 0.21726548985 0.19154016597 0.098092131833
          0.090342271004 0.14469430515 0.13166797208 -0.0011218155816 -0.00087364483007 0.048969313835
          0.045490286532 -0.099766272023 -0.091595877548 -0.051066283156 -0.047109256851 -0.18600679866
          -0.1666707557 -0.14570629344 -0.13236451015 -0.2317520831 -0.20029141235 -0.2166106307
          -0.19094716835 -0.18635555618 -0.15321373846 -0.22442185025 -0.18909271953 -4.2147291748e-14
          -1.3790049026e-13 -0.11126281105 -0.09012193281 0.25803932672 6.627220327e-14 0.22350794321
          0.16437317628 2.0986082298e-13 0.13563360709 0.28476922152 0.26199129612 0.2928752031
          0.26148004136 0.20261618678 0.19931867263 0.2502069345 0.23818132936 0.099832202689
          0.10187339624 0.1514722059 0.15239665023 -0.0014833551252 -0.0013601173647 0.048885065139
          0.050369042549 -0.1022627071 -0.10399786559 -0.051719435233 -0.052937394076 -0.20337186722
          -0.19977785186 -0.153205831 -0.15380029235 -0.28311921965 -0.26042359726 -0.24976640746
          -0.2375811111 -0.25538098229 -0.22138947925 -0.29036639838 -0.2593259642 -6.5540659851e-14
          -2.0790783794e-13 -0.16256253864 -0.13431576286 0.34151144265 1.0496119098e-13 0.29449728851
          0.24508966568 3.3983563485e-13 0.19719129055 0.2754979795 0.29454595105 0.3328305056
          0.31797119457 0.16517732729 0.19236728506 0.21747162536 0.24684653662 0.073878375913
          0.090917564411 0.11728351569 0.14028663698 -0.0012835347612 -0.0014882511818 0.035080539758
          0.043975240563 -0.076207090208 -0.093497151212 -0.037588312162 -0.046858599589 -0.16657382268
          -0.19351382617 -0.11927628864 -0.14229736355 -0.27454678574 -0.29313356217 -0.21790206751
          -0.2468216754 -0.33781491594 -0.29127177594 -0.33021847632 -0.3152826974 -1.0357720713e-13
          -3.3579069724e-13 -0.24213231061 -0.19483964009 0.25907618027 2.4915293134e-13 0.36148054453
          0.32381398546 5.2404901389e-13 0.28037707414 0.14065270357 0.22256730062 0.18160761206
          0.30572365694 0.066982464223 0.12296158468 0.10174727605 0.16599981602 0.027687877725
          0.051287552561 0.043759715301 0.084316077003 -0.00049918915809 -0.00091237193186 0.013364594368
          0.023975605456 -0.028689230188 -0.053012528257 -0.014369383342 -0.025767263923 -0.068000135304
          -0.12434374025 -0.044773728213 -0.085958769731 -0.14099430984 -0.2223670232 -0.10255276106
          -0.16676295867 -0.25773521976 -0.3585248186 -0.18154066061 -0.30421272545 -2.471282465e-13
          -5.1737780448e-13 -0.32087264229 -0.2772293777 2.5952299503e-14 1.2991583093e-13 0.094192908277
          6.4621679482e-13 1.1755348276e-12 0.31175499268 1.4954007915e-14 0.057950233243 -9.4085591844e-15
          0.042218991463 -8.8698530463e-16 0.017364800266 4.0170842642e-14 0.040925449633 1.3550401629e-15
          0.0089070846388 -3.1279022374e-15 0.010046341523 2.6013748847e-17 -0.0001166775634 4.2563181169e-15
          0.00497689473 -1.3211024683e-15 -0.0091627291968 -4.1257828958e-15 -0.0052383843792 9.0366607453e-16
          -0.017704895038 3.3960350949e-15 -0.010273281688 -1.4742132669e-14 -0.057957274673 -4.0157696106e-14
          -0.04129390291 -2.6747492474e-14 -0.09464320664 9.483748485e-15 -0.042350355773 -1.2838236506e-13
          -1.1660784864e-12 -6.4288456058e-13 -0.31003801156
        </DataArray>
        <DataArray type="Float64" Name="p" format="ascii" RangeMin="-83.711669215" RangeMax="82.992101011">
          -0.32641081923 -0.41102988333 -0.32833919738 -0.24037195137 -0.36872035128 -0.36968454036
          -0.28435557438 -0.2833913853 -0.32653796283 -0.53624787156 -0.38636524065 -0.47363887745
          -0.4613065561 -0.35735221902 -0.41549554823 -0.49038726386 -0.34447015335 -0.51331756771
          -0.4174287086 -0.365417697 -0.43936763235 -0.28232126587 -0.19345039557 -0.38635426486
          -0.23788583072 -0.26896027446 -0.32765726966 0.023349519226 0.023308655728 -0.12948587332
          0.023329087477 -0.08507086992 -0.10727837162 0.3286314169 0.23977796179 0.17599046806
          0.28420468934 0.13154330876 0.15376688841 0.53612136799 0.39036283035 0.43237639244
          0.46324209917 0.31507039607 0.37372339426 0.58214935659 0.43235156542 0.55913536229
          0.50725046101 0.41135719789 0.48524628009 0.45750521324 0.37478310397 0.51982728492
          0.4161441586 0.40356733469 0.46169730981 0.37287667883 0.28675526238 0.41519094604
          0.3298159706 0.33076918317 0.3729800646 -0.27828099724 -0.084841870377 -0.30331009731
          -0.18156143381 -0.16260691087 -0.23295850409 -0.35846658227 -0.37241591146 -0.31837378976
          -0.33786300439 -0.31829998356 -0.33138506845 -0.33838328291 -0.35190048995 -0.17611071319
          -0.18478055438 -0.24720534837 -0.25808281142 0.024114482 0.023711568864 -0.075998115597
          -0.080534492758 0.22374079517 0.23175937848 0.12392763859 0.12773547367 0.36488093722
          0.37762188378 0.29431086619 0.30469063113 0.40488797809 0.41861977176 0.38488445765
          0.39812082777 0.32556770095 0.35017540246 0.36522783952 0.38439758711 0.13220419493
          0.20947972866 0.22888594794 0.27982756556 -0.34061459458 -0.040753553885 -0.30944779591
          -0.19068407423 -0.062797712131 -0.18612275402 -0.45114404875 -0.40480531551 -0.39587932167
          -0.35712655571 -0.3965949959 -0.35744748973 -0.42386952233 -0.38112640262 -0.21686150523
          -0.19648610921 -0.30672825057 -0.27696679947 0.027015082872 0.025564782436 -0.094923211179
          -0.085460663388 0.26950580113 0.24662329815 0.148260442 0.13609404029 0.4464828161
          0.40568187666 0.35799430861 0.3261525874 0.49967146227 0.45227972018 0.47307713918
          0.42898079842 0.39029793911 0.35793282003 0.44498470069 0.40510627011 0.09164258739
          0.11192339116 0.24097026325 0.2349281056 -0.58236395657 -0.18451218858 -0.46148927557
          -0.38343807257 -0.11263287123 -0.2870610734 -0.71672850504 -0.5839362769 -0.6495462308
          -0.52271277624 -0.59770443971 -0.4971497178 -0.65721647237 -0.54054299735 -0.32024975982
          -0.26855563252 -0.45897709976 -0.38285267516 0.034222878422 0.030618980647 -0.1430134407
          -0.11896832594 0.38564380082 0.32757480097 0.20993333962 0.17909689081 0.65631489336
          0.55139885473 0.52097934709 0.43948682785 0.7703976594 0.63503456083 0.71335627638
          0.59321670778 0.63702365575 0.51366079743 0.70371065757 0.57434767913 0.2421154464
          0.1668790169 0.43956955107 0.34026990716 -1.1525612324 -0.56398052078 -0.86746259449
          -0.8582708766 -0.37424635468 -0.62085447459 -1.2144658874 -0.9655971962 -1.1835135599
          -0.91652989534 -0.95804864019 -0.77787653995 -1.0862572638 -0.87173686807 -0.49275008657
          -0.40649992319 -0.72539936338 -0.59218823157 0.048762154062 0.041492516242 -0.22199396625
          -0.18250370347 0.58404246156 0.48484313119 0.31640230781 0.26316782372 1.0346299949
          0.84547244411 0.80933622821 0.66515778765 1.2775788154 1.0239882374 1.1561044051
          0.93473034075 1.2126601888 0.92484192226 1.2451195021 0.97441507983 0.63218703032
          0.43715123836 0.92242360955 0.68099658031 -2.1020229839 -1.551922404 -1.6272921082
          -1.8269726939 -1.0579514624 -1.3426217853 -2.0936769049 -1.6540713961 -2.0978499444
          -1.6406817521 -1.4930911895 -1.2255699148 -1.7933840472 -1.4398206555 -0.73742174189
          -0.61508591423 -1.1152564657 -0.92032791453 0.072193194036 0.060477674049 -0.33261427393
          -0.27730412009 0.87126653287 0.72765449721 0.47172986345 0.39406608563 1.5992901067
          1.3169600508 1.2352783198 1.022307274 2.1698993551 1.7237390853 1.8845947309
          1.520349568 2.1676284166 1.6901443027 2.1687638858 1.706941694 1.6259467291
          1.1290668797 1.8967875728 1.4096055912 -4.2325201648 -3.0305926407 -3.1672715744
          -3.6315564028 -2.2912575223 -2.7292645484 -3.3156174489 -2.7046471769 -3.7740688069
          -2.9359593756 -2.2212902387 -1.8571907141 -2.7684538438 -2.2809189455 -1.0060467934
          -0.87173426766 -1.6136685161 -1.3644624909 0.099504035341 0.085848614689 -0.45327137905
          -0.39294282649 1.1899185986 1.0305925657 0.64471131697 0.55822059021 2.3645519334
          1.9819210201 1.777235266 1.5062567929 3.4046543608 2.7872768579 2.8846031471
          2.384598939 4.2830059032 3.2253171599 3.843830132 3.0062970089 3.0978255446
          2.3618861369 3.6904157239 2.7936016484 -6.7850025755 -7.5823461217 -5.5087613701
          -7.1836743486 -5.3064693812 -5.4076153757 -5.3313693174 -4.3234933832 -6.0581859464
          -4.9161273767 -2.7944484662 -2.5078693524 -4.0629088918 -3.4156813678 -1.2356469271
          -1.1208468603 -2.0150476966 -1.8143581063 0.11420034839 0.10685219187 -0.56072328934
          -0.50699733419 1.449148135 1.3195333668 0.78167424171 0.71319277934 2.9571120789
          2.6608320062 2.203130107 1.9901826865 5.4198026955 4.4122285281 4.1884573872
          3.5365302671 6.8092888819 5.5461473926 6.1145457887 4.9791879603 7.5926864577
          5.3452560012 7.2009876698 5.4457016969 -16.24033706 -15.630464574 -11.512669818
          -15.935400817 -11.606405348 -11.559537583 -5.2464489801 -5.2889091487 -10.74339302
          -8.4007894831 -3.1864043543 -2.9904264103 -4.2164266672 -4.1396677795 -1.0607127251
          -1.1481798261 -2.1235585397 -2.0693031182 0.10559137056 0.10989585948 -0.47756067728
          -0.51914198331 1.2485827386 1.3488654368 0.67708705459 0.72938064815 3.330706817
          3.1439094479 2.2896447778 2.2463874424 5.2877599998 5.3537813476 4.3092334084
          4.2488453978 16.152109832 11.480699357 10.719934916 8.4172403522 15.482905652
          11.537796055 15.817507742 11.509247706 -3.915479398 -83.711669215 -10.077908229
          -43.813574306 -49.671066894 -29.874487562 -6.0180690504 -5.6322590153 -4.9667742242
          -7.855083622 -1.1298470094 -2.1581256819 -3.5739580299 -3.8951923486 -0.83114637516
          -0.94592955014 -0.98049669227 -1.552027616 0.085732129583 0.095661750074 -0.37270712279
          -0.42513390004 0.99580511096 1.1221939248 0.54076862027 0.60892783743 1.2178776488
          2.2742922329 1.1068413799 1.6982430788 6.025741482 5.6567507409 3.6218095654
          3.9655214869 3.7917914317 9.9719506317 4.9087664568 7.8143506863 82.992101011
          49.237503332 43.391946221 29.604726982
        </DataArray>
      </PointData>
      <CellData>
        <DataArray type="Int32" Name="libmesh_elem_id" format="ascii" RangeMin="0" RangeMax="99">
          0 1 2 3 4 5
          6 7 8 9 10 11
          12 13 14 15 16 17
          18 19 20 21 22 23
          24 25 26 27 28 29
          30 31 32 33 34 35
          36 37 38 39 40 41
          42 43 44 45 46 47
          48 49 50 51 52 53
          54 55 56 57 58 59
          60 61 62 63 64 65
          66 67 68 69 70 71
          72 73 74 75 76 77
          78 79 80 81 82 83
          84 85 86 87 88 89
          90 91 92 93 94 95
          96 97 98 99
        </DataArray>
        <DataArray type="Int32" Name="subdomain_id" format="ascii" RangeMin="0" RangeMax="0">
          0 0 0 0 0 0
          0 0 0 0 0 0
          0 0 0 0 0 0
          0 0 0 0 0 0
          0 0 0 0 0 0
          0 0 0 0 0 0
          0 0 0 0 0 0
          0 0 0 0 0 0
          0 0 0 0 0 0
          0 0 0 0 0 0
          0 0 0 0 0 0
          0 0 0 0 0 0
          0 0 0 0 0 0
          0 0 0 0 0 0
          0 0 0 0 0 0
          0 0 0 0 0 0
          0 0 0 0
        </DataArray>
        <DataArray type="Int32" Name="processor_id" format="ascii" RangeMin="0" RangeMax="0">
          0 0 0 0 0 0
          0 0 0 0 0 0
          0 0 0 0 0 0
          0 0 0 0 0 0
          0 0 0 0 0 0
          0 0 0 0 0 0
          0 0 0 0 0 0
          0 0 0 0 0 0
          0 0 0 0 0 0
          0 0 0 0 0 0
          0 0 0 0 0 0
          0 0 0 0 0 0
          0 0 0 0 0 0
          0 0 0 0 0 0
          0 0 0 0 0 0
          0 0 0 0 0 0
          0 0 0 0
        </DataArray>
      </CellData>
      <Points>
        <DataArray type="Float64" Name="Points" NumberOfComponents="3" format="ascii" RangeMin="0" RangeMax="1.4142135624">
          0 0 0 0.1 0 0
          0.1 0.1 0 0 0.1 0
          0.05 0 0 0.1 0.05 0
          0.05 0.1 0 0 0.05 0
          0.05 0.05 0 0.2 0 0
          0.2 0.1 0 0.15 0 0
          0.2 0.05 0 0.15 0.1 0
          0.15 0.05 0 0.3 0 0
          0.3 0.1 0 0.25 0 0
          0.3 0.05 0 0.25 0.1 0
          0.25 0.05 0 0.4 0 0
          0.4 0.1 0 0.35 0 0
          0.4 0.05 0 0.35 0.1 0
          0.35 0.05 0 0.5 0 0
          0.5 0.1 0 0.45 0 0
          0.5 0.05 0 0.45 0.1 0
          0.45 0.05 0 0.6 0 0
          0.6 0.1 0 0.55 0 0
          0.6 0.05 0 0.55 0.1 0
          0.55 0.05 0 0.7 0 0
          0.7 0.1 0 0.65 0 0
          0.7 0.05 0 0.65 0.1 0
          0.65 0.05 0 0.8 0 0
          0.8 0.1 0 0.75 0 0
          0.8 0.05 0 0.75 0.1 0
          0.75 0.05 0 0.9 0 0
          0.9 0.1 0 0.85 0 0
          0.9 0.05 0 0.85 0.1 0
          0.85 0.05 0 1 0 0
          1 0.1 0 0.95 0 0
          1 0.05 0 0.95 0.1 0
          0.95 0.05 0 0.1 0.2 0
          0 0.2 0 0.1 0.15 0
          0.05 0.2 0 0 0.15 0
          0.05 0.15 0 0.2 0.2 0
          0.2 0.15 0 0.15 0.2 0
          0.15 0.15 0 0.3 0.2 0
          0.3 0.15 0 0.25 0.2 0
          0.25 0.15 0 0.4 0.2 0
          0.4 0.15 0 0.35 0.2 0
          0.35 0.15 0 0.5 0.2 0
          0.5 0.15 0 0.45 0.2 0
          0.45 0.15 0 0.6 0.2 0
          0.6 0.15 0 0.55 0.2 0
          0.55 0.15 0 0.7 0.2 0
          0.7 0.15 0 0.65 0.2 0
          0.65 0.15 0 0.8 0.2 0
          0.8 0.15 0 0.75 0.2 0
          0.75 0.15 0 0.9 0.2 0
          0.9 0.15 0 0.85 0.2 0
          0.85 0.15 0 1 0.2 0
          1 0.15 0 0.95 0.2 0
          0.95 0.15 0 0.1 0.3 0
          0 0.3 0 0.1 0.25 0
          0.05 0.3 0 0 0.25 0
          0.05 0.25 0 0.2 0.3 0
          0.2 0.25 0 0.15 0.3 0
          0.15 0.25 0 0.3 0.3 0
          0.3 0.25 0 0.25 0.3 0
          0.25 0.25 0 0.4 0.3 0
          0.4 0.25 0 0.35 0.3 0
          0.35 0.25 0 0.5 0.3 0
          0.5 0.25 0 0.45 0.3 0
          0.45 0.25 0 0.6 0.3 0
          0.6 0.25 0 0.55 0.3 0
          0.55 0.25 0 0.7 0.3 0
          0.7 0.25 0 0.65 0.3 0
          0.65 0.25 0 0.8 0.3 0
          0.8 0.25 0 0.75 0.3 0
          0.75 0.25 0 0.9 0.3 0
          0.9 0.25 0 0.85 0.3 0
          0.85 0.25 0 1 0.3 0
          1 0.25 0 0.95 0.3 0
          0.95 0.25 0 0.1 0.4 0
          0 0.4 0 0.1 0.35 0
          0.05 0.4 0 0 0.35 0
          0.05 0.35 0 0.2 0.4 0
          0.2 0.35 0 0.15 0.4 0
          0.15 0.35 0 0.3 0.4 0
          0.3 0.35 0 0.25 0.4 0
          0.25 0.35 0 0.4 0.4 0
          0.4 0.35 0 0.35 0.4 0
          0.35 0.35 0 0.5 0.4 0
          0.5 0.35 0 0.45 0.4 0
          0.45 0.35 0 0.6 0.4 0
          0.6 0.35 0 0.55 0.4 0
          0.55 0.35 0 0.7 0.4 0
          0.7 0.35 0 0.65 0.4 0
          0.65 0.35 0 0.8 0.4 0
          0.8 0.35 0 0.75 0.4 0
          0.75 0.35 0 0.9 0.4 0
          0.9 0.35 0 0.85 0.4 0
          0.85 0.35 0 1 0.4 0
          1 0.35 0 0.95 0.4 0
          0.95 0.35 0 0.1 0.5 0
          0 0.5 0 0.1 0.45 0
          0.05 0.5 0 0 0.45 0
          0.05 0.45 0 0.2 0.5 0
          0.2 0.45 0 0.15 0.5 0
          0.15 0.45 0 0.3 0.5 0
          0.3 0.45 0 0.25 0.5 0
          0.25 0.45 0 0.4 0.5 0
          0.4 0.45 0 0.35 0.5 0
          0.35 0.45 0 0.5 0.5 0
          0.5 0.45 0 0.45 0.5 0
          0.45 0.45 0 0.6 0.5 0
          0.6 0.45 0 0.55 0.5 0
          0.55 0.45 0 0.7 0.5 0
          0.7 0.45 0 0.65 0.5 0
          0.65 0.45 0 0.8 0.5 0
          0.8 0.45 0 0.75 0.5 0
          0.75 0.45 0 0.9 0.5 0
          0.9 0.45 0 0.85 0.5 0
          0.85 0.45 0 1 0.5 0
          1 0.45 0 0.95 0.5 0
          0.95 0.45 0 0.1 0.6 0
          0 0.6 0 0.1 0.55 0
          0.05 0.6 0 0 0.55 0
          0.05 0.55 0 0.2 0.6 0
          0.2 0.55 0 0.15 0.6 0
          0.15 0.55 0 0.3 0.6 0
          0.3 0.55 0 0.25 0.6 0
          0.25 0.55 0 0.4 0.6 0
          0.4 0.55 0 0.35 0.6 0
          0.35 0.55 0 0.5 0.6 0
          0.5 0.55 0 0.45 0.6 0
          0.45 0.55 0 0.6 0.6 0
          0.6 0.55 0 0.55 0.6 0
          0.55 0.55 0 0.7 0.6 0
          0.7 0.55 0 0.65 0.6 0
          0.65 0.55 0 0.8 0.6 0
          0.8 0.55 0 0.75 0.6 0
          0.75 0.55 0 0.9 0.6 0
          0.9 0.55 0 0.85 0.6 0
          0.85 0.55 0 1 0.6 0
          1 0.55 0 0.95 0.6 0
          0.95 0.55 0 0.1 0.7 0
          0 0.7 0 0.1 0.65 0
          0.05 0.7 0 0 0.65 0
          0.05 0.65 0 0.2 0.7 0
          0.2 0.65 0 0.15 0.7 0
          0.15 0.65 0 0.3 0.7 0
          0.3 0.65 0 0.25 0.7 0
          0.25 0.65 0 0.4 0.7 0
          0.4 0.65 0 0.35 0.7 0
          0.35 0.65 0 0.5 0.7 0
          0.5 0.65 0 0.45 0.7 0
          0.45 0.65 0 0.6 0.7 0
          0.6 0.65 0 0.55 0.7 0
          0.55 0.65 0 0.7 0.7 0
          0.7 0.65 0 0.65 0.7 0
          0.65 0.65 0 0.8 0.7 0
          0.8 0.65 0 0.75 0.7 0
          0.75 0.65 0 0.9 0.7 0
          0.9 0.65 0 0.85 0.7 0
          0.85 0.65 0 1 0.7 0
          1 0.65 0 0.95 0.7 0
          0.95 0.65 0 0.1 0.8 0
          0 0.8 0 0.1 0.75 0
          0.05 0.8 0 0 0.75 0
          0.05 0.75 0 0.2 0.8 0
          0.2 0.75 0 0.15 0.8 0
          0.15 0.75 0 0.3 0.8 0
          0.3 0.75 0 0.25 0.8 0
          0.25 0.75 0 0.4 0.8 0
          0.4 0.75 0 0.35 0.8 0
          0.35 0.75 0 0.5 0.8 0
          0.5 0.75 0 0.45 0.8 0
          0.45 0.75 0 0.6 0.8 0
          0.6 0.75 0 0.55 0.8 0
          0.55 0.75 0 0.7 0.8 0
          0.7 0.75 0 0.65 0.8 0
          0.65 0.75 0 0.8 0.8 0
          0.8 0.75 0 0.75 0.8 0
          0.75 0.75 0 0.9 0.8 0
          0.9 0.75 0 0.85 0.8 0
          0.85 0.75 0 1 0.8 0
          1 0.75 0 0.95 0.8 0
          0.95 0.75 0 0.1 0.9 0
          0 0.9 0 0.1 0.85 0
          0.05 0.9 0 0 0.85 0
          0.05 0.85 0 0.2 0.9 0