<?xml version="1.0"?>
<VTKFile type="UnstructuredGrid" version="0.1" byte_order="LittleEndian" compressor="vtkZLibDataCompressor">
  <UnstructuredGrid>
    <Piece NumberOfPoints="441" NumberOfCells="100">
      <PointData>
        <DataArray type="Float64" Name="u" format="ascii" RangeMin="-0.18576140921" RangeMax="1">
          1.7576333847e-16 -2.3862372797e-16 -0.0043933976651 -4.7740495052e-18 4.1955254223e-16 -0.0018157356868
          -0.0011086874994 6.8960283709e-16 -0.00023163605175 -2.6351456289e-15 -0.015956365887 -4.9079299848e-15
          -0.0080943525206 -0.0094629652581 -0.0043834223792 -5.9328310254e-15 -0.029907442902 -1.7238490043e-14
          -0.016148784615 -0.023013118756 -0.012161087413 -8.4769881486e-15 -0.040688411716 -2.9227426448e-14
          -0.022421490387 -0.036007998229 -0.019720319544 -9.419531082e-15 -0.044677998903 -3.6374530921e-14
          -0.024749309382 -0.043709711004 -0.024220948438 -8.4718735175e-15 -0.040672073832 -3.6362048148e-14
          -0.02241155836 -0.04369949242 -0.024214474664 -5.9294744372e-15 -0.029894981848 -2.9206741066e-14
          -0.016142027389 -0.035990183185 -0.019709523812 -2.6372178318e-15 -0.015960081971 -1.723653456e-14
          -0.0080979713807 -0.023008763554 -0.012159778626 -2.4116944155e-16 -0.0044007393311 -4.9211346219e-15
          -0.0018207914043 -0.0094716902032 -0.0043901255929 1.7575355092e-16 -5.8642181988e-18 4.1615591147e-16
          6.8696004863e-16 -0.0011120279707 -0.00023368289344 -0.009263712564 -1.4191459701e-16 -0.0069025128617
          -0.0025138078341 -4.0480947879e-16 -0.0018628635943 -0.030500766559 -0.023355647994 -0.018990170142
          -0.014314736969 -0.054031649336 -0.04226218585 -0.04257032673 -0.032984646267 -0.071591412969
          -0.056641155356 -0.063999820403 -0.050407909111 -0.077991108047 -0.061929437733 -0.076418183601
          -0.060635934814 -0.071541773412 -0.056613840586 -0.076389177636 -0.060619400422 -0.053977662199
          -0.042236922926 -0.063940022177 -0.050376506664 -0.030481901326 -0.023353879952 -0.042531270565
          -0.032970326991 -0.009268244006 -0.0069102666667 -0.018988733185 -0.014322168268 -1.4381214222e-16
          -4.1067621246e-16 -0.0025175379224 -0.0018668215645 -0.014209768228 -2.1865192371e-16 -0.01164053505
          -0.0038894368272 -6.8581944274e-16 -0.0031612094486 -0.045520201611 -0.037765236312 -0.028779670346
          -0.023718628517 -0.07850805645 -0.065942860205 -0.062651777545 -0.052306097393 -0.10213348644
          -0.086564438216 -0.09201854294 -0.077688773998 -0.11052256807 -0.093991961899 -0.10847437346
          -0.092170129638 -0.1019775025 -0.08647385726 -0.10838707577 -0.09211850909 -0.078307031917
          -0.065833588782 -0.091820046285 -0.077576008625 -0.045397596761 -0.037709131402 -0.062477680952
          -0.052217200875 -0.014183590539 -0.01163531807 -0.028712995243 -0.023694791824 -2.2194344528e-16
          -6.9710443242e-16 -0.0038869570546 -0.0031637466193 -0.020499950336 -4.0993466155e-16 -0.017128313607
          -0.0057480017791 -1.2848146775e-15 -0.0047663369082 -0.063730374861 -0.054107091355 -0.04089891442
          -0.034422165351 -0.10664991031 -0.092094355335 -0.086401819007 -0.073992920673 -0.13564590359
          -0.11859840899 -0.12341934278 -0.10732406246 -0.14552601262 -0.12784551076 -0.14316001115
          -0.12560639398 -0.13526764998 -0.1183465606 -0.14295344344 -0.12546733956 -0.10611883333
          -0.091754064064 -0.12292252054 -0.10699795903 -0.063345065247 -0.053877804253 -0.085907749363
          -0.073685981331 -0.020379432437 -0.017065118385 -0.0406522804 -0.034284289997 -4.1094223896e-16
          -1.293311913e-15 -0.0057186408606 -0.0047531496526 -0.029091826773 -5.038435495e-16 -0.024421423806
          -0.0081274770334 -1.6036085817e-15 -0.0067131453583 -0.0860016279 -0.074483955698 -0.056857437578
          -0.048447913605 -0.13661433148 -0.12184010486 -0.11347105753 -0.099761308081 -0.16733539771
          -0.15249659586 -0.15478512436 -0.13974210575 -0.17700644203 -0.16259866094 -0.17476970314
          -0.16021380692 -0.16664687517 -0.15196600747 -0.17440157549 -0.15992685187 -0.13557032341
          -0.1210671609 -0.15385227544 -0.13903499649 -0.085145720023 -0.073886040141 -0.11244406485
          -0.099021555469 -0.028777099295 -0.024218859041 -0.05625857552 -0.048045846998 -5.0337252601e-16
          -1.6103404359e-15 -0.0080454499003 -0.0066647970612 -0.040782916712 -1.6336770894e-15 -0.034658716411
          -0.012636896901 -4.7432108764e-15 -0.010457948822 -0.10880560697 -0.097757598184 -0.075539897572
          -0.06581492973 -0.15667607931 -0.14931167753 -0.13669411424 -0.12659707124 -0.17869025621
          -0.1774910425 -0.17040569769 -0.1662740539 -0.18422463775 -0.18576140921 -0.18307772885
          -0.18391081113 -0.17783253657 -0.17667458651 -0.18263522057 -0.1834812381 -0.15521339948
          -0.14800975074 -0.16918255114 -0.16514326802 -0.10739988812 -0.096617291156 -0.13513706436
          -0.12527265399 -0.04016993517 -0.034200439685 -0.074466529746 -0.064986087818 -1.6047250238e-15
          -4.6790545625e-15 -0.012445265925 -0.010320477787 -0.0545628451 -1.3085789239e-15 -0.047267920876
          -0.016475541475 -4.141686099e-15 -0.013336119701 -0.11849614357 -0.11745408414 -0.093863376805
          -0.086313252214 -0.13513964338 -0.1542342751 -0.1316446744 -0.14021448626 -0.12941180554
          -0.16527893622 -0.13337947209 -0.16205045357 -0.12487277056 -0.1664437066 -0.12608525194
          -0.16633654018 -0.12901571161 -0.16454366762 -0.12590536515 -0.165968386 -0.13413417616
          -0.15282959938 -0.1326997204 -0.16095022724 -0.1170576336 -0.11589193378 -0.13032100576
          -0.13860559415 -0.053714337022 -0.046511675192 -0.092535613786 -0.085025793254 -1.2699862423e-15
          -4.0246173516e-15 -0.01619986402 -0.013111856755 -0.065274010076 -1.1951325742e-14 -0.062576446684
          -0.033653650859 -3.0160083244e-14 -0.026696352332 -0.067137426649 -0.10509409525 -0.080317219147
          -0.092537481572 -0.0037145297644 -0.090011957782 -0.03817229033 -0.10344062047 0.046722939382
          -0.061905585265 0.025725262679 -0.074442644599 0.064065663425 -0.050952612551 0.059975426026
          -0.053623891292 0.045843532289 -0.062090242472 0.059489532789 -0.053757127518 -0.0048338806639
          -0.089883666659 0.024609890277 -0.074546293047 -0.067369143188 -0.1042426325 -0.038969837686
          -0.10293289208 -0.064790228468 -0.061760213247 -0.079933487987 -0.091483673061 -1.182205653e-14
          -2.9747942444e-14 -0.03334599765 -0.026349129846 0.010554780708 -4.8955635757e-14 -0.051487520752
          -0.020274931607 -3.8509132512e-14 -0.023487106137 0.20186303321 0.015989224701 0.085403520158
          -0.049381616802 0.35362901865 0.14051565977 0.29831415662 0.089599968992 0.41974157985
          0.2053045899 0.39202687303 0.17791970084 0.44111353991 0.22754067829 0.43664947027
          0.22260663622 0.4182043228 0.20385096164 0.43590201777 0.22187124125 0.35079442418
          0.13815555422 0.38974900237 0.17587726854 0.19840276834 0.014029325532 0.29499808479
          0.087223278193 0.0091686739643 -0.051756480007 0.08262918929 -0.050450443805 -4.8491345155e-14
          -3.7353575522e-14 -0.019666161058 -0.023243427638 1 0.5 0.24806244175
          1 -8.329349531e-14 0.0175765611 1 0.53707497823 1
          0.45543448927 1 0.64085911237 1 0.59662786481 1
          0.68946230002 1 0.67296869889 1 0.70161640935 1
          0.69891773587 1 0.68857438868 1 0.69844318425 1
          0.63892915417 1 0.67159375499 1 0.53438665359 1
          0.59415184178 1 0.2453447426 1 0.45236100942 0.5
          -8.3460922364e-14 1 0.01587401231
        </DataArray>
        <DataArray type="Float64" Name="v" format="ascii" RangeMin="-0.3523699275" RangeMax="0.35509019606">
          -1.7640426691e-16 2.6555704463e-17 0.0043224941116 1.8787164155e-16 -6.6577121568e-16 0.0010916195156
          0.0018030772239 -4.2929836696e-16 0.00023480066746 1.6563688839e-16 0.007529448715 5.3065303849e-16
          0.002048835079 0.006358467082 0.0017279446702 1.7347922277e-16 0.0072733733738 7.2072568655e-16
          0.0020122315402 0.0078156473095 0.0021582567395 9.9521389286e-17 0.0043126821183 5.7619900654e-16
          0.0011937723919 0.0060546245037 0.0016846170213 -3.8315715193e-19 -6.6088369997e-06 2.0563076876e-16
          -1.7346249142e-06 0.0022374788686 0.0006211742995 -9.9773659084e-17 -0.0043177140362 -2.0799134244e-16
          -0.0011947617612 -0.0022484157375 -0.00062401002926 -1.7290933882e-16 -0.0072651033966 -5.7542980012e-16
          -0.0020092971338 -0.0060523020162 -0.0016833916123 -1.6516881684e-16 -0.007521968505 -7.1816086832e-16
          -0.0020463924922 -0.0078054043383 -0.0021547507478 -2.7046714508e-17 -0.004327637109 -5.3085088165e-16
          -0.001093169944 -0.0063574734362 -0.00172760722 1.7652814471e-16 -1.9122237012e-16 6.6408141279e-16
          4.2604637644e-16 -0.0018095694689 -0.00023648837737 0.017032872019 2.6729750814e-15 0.0095815494416
          0.0087831054601 4.888596962e-15 0.0045201230011 0.026554790172 0.015785477576 0.02316876103
          0.013516036845 0.024916505299 0.015048523906 0.027045771125 0.016240611103 0.014630472279
          0.0088912481198 0.020598047959 0.012489436408 -2.5349782484e-05 -1.2903854689e-05 0.0075712446207
          0.0046088885043 -0.014652835436 -0.0089006441755 -0.0076141016641 -0.0046301262183 -0.024889774338
          -0.015030728929 -0.020594162175 -0.012483975498 -0.026522686891 -0.015768019187 -0.027008592519
          -0.016218332167 -0.0170413104 -0.009589404696 -0.023155620454 -0.013511092937 -2.6852538509e-15
          -4.9161931301e-15 -0.0088011681144 -0.0045316781281 0.038154652896 7.320215512e-15 0.026473224905
          0.021026943225 1.9494247778e-14 0.014203727496 0.055689770578 0.039770590738 0.049873596452
          0.035189035814 0.050628896122 0.036756927367 0.055688603822 0.040140415526 0.029247141844
          0.021427208171 0.04145251468 0.030253908205 -8.1604673543e-05 -4.4633373612e-05 0.015062016463
          0.011065932393 -0.02933705403 -0.021470537669 -0.015205339611 -0.011142639785 -0.050577316981
          -0.036716649645 -0.041470446897 -0.030253599378 -0.05558627718 -0.039711057292 -0.055592492281
          -0.040078304651 -0.038134723277 -0.026474053503 -0.049802554468 -0.03515565438 -7.3408214263e-15
          -1.9559589055e-14 -0.021044583227 -0.014224487981 0.069031752428 1.4128126719e-14 0.052109966738
          0.039153057559 4.236036818e-14 0.029172876877 0.09596193932 0.074305071466 0.087918494434
          0.067255116472 0.084283623514 0.066459832017 0.09417157028 0.073641178886 0.047589093014
          0.038003950602 0.068131368487 0.054100215601 -0.0002279189241 -0.00013716394822 0.02431971162
          0.019505990364 -0.047876748084 -0.038165729707 -0.024730616635 -0.019750088886 -0.08421353839
          -0.066393290697 -0.06824482859 -0.054148434196 -0.095677465461 -0.074128341655 -0.093957071111
          -0.073492599287 -0.068870935437 -0.052042086766 -0.087659819277 -0.06711366192 -1.413968748e-14
          -4.242750734e-14 -0.039109289596 -0.029172317685 0.1119456599 2.4370427187e-14 0.088788970342
          0.065277313849 7.5303311842e-14 0.050850190203 0.14820739611 0.12050545027 0.13909261064
          0.11170556639 0.12423378368 0.10371918999 0.14197399249 0.11700556814 0.067873770058
          0.057704759733 0.098585431803 0.083155004902 -0.0005202328555 -0.00035145597894 0.034303303198
          0.029341338424 -0.068593797608 -0.05816897402 -0.035259775198 -0.029980950436 -0.12419941069
          -0.10365170584 -0.098953138494 -0.083365550955 -0.14756926756 -0.12006716636 -0.14157545901
          -0.11670314638 -0.11141839629 -0.088480615903 -0.13841487287 -0.11127175212 -2.4313185304e-14
          -7.5243599419e-14 -0.065023792046 -0.05072995552 0.17165703898 3.9165127135e-14 0.13881731543
          0.10317152039 1.2648173116e-13 0.082187137456 0.20890077104 0.17809779447 0.20471195738
          0.16986347611 0.16316366011 0.14463796677 0.19269089074 0.16780010309 0.084785476947
          0.077316132218 0.12594358354 0.11338061086 -0.00094272646563 -0.00072416027835 0.042148888859
          0.03878805269 -0.086200041722 -0.07836040413 -0.043913232143 -0.04013144642 -0.16333852582
          -0.14467668163 -0.12680675679 -0.11396561032 -0.20775744454 -0.17721686085 -0.19214706707
          -0.16731075342 -0.1703408692 -0.13796967869 -0.20327180434 -0.1688544338 -3.8911627206e-14
          -1.2591049091e-13 -0.10240806908 -0.081735084901 0.24297307828 6.3204822861e-14 0.20730840414
          0.15600600404 1.9685052517e-13 0.12661331883 0.26262892962 0.23809260663 0.27313998071
          0.24023677279 0.18227213709 0.17717488781 0.22793240198 0.2140408777 0.088061366205
          0.088967390286 0.13476778397 0.13414340627 -0.0012793909716 -0.001157928777 0.042895845504
          0.043780181969 -0.090171858847 -0.090786083449 -0.045344621023 -0.045969538332 -0.18295188679
          -0.17758436263 -0.13628746586 -0.13535557975 -0.2612044249 -0.23674954858 -0.22757154946
          -0.21353853281 -0.2406473337 -0.20548112247 -0.2709526814 -0.23838127916 -6.2572643438e-14
          -1.951887679e-13 -0.15442599826 -0.12548264633 0.33166432765 1.0316651269e-13 0.28160001377
          0.23980609461 3.2972286747e-13 0.19006449195 0.26085363951 0.27556790037 0.31977755643
          0.30103430238 0.15188642089 0.17505045834 0.20281249148 0.22781337373 0.06628775299
          0.080966192251 0.10644604978 0.12611942293 -0.0011370581297 -0.0013038690098 0.031237423888
          0.038925960531 -0.068362729916 -0.083244055799 -0.033461765869 -0.041457275149 -0.15316565775
          -0.1760979488 -0.10823914659 -0.12791401751 -0.26001935358 -0.27434519721 -0.20323462197
          -0.22783084386 -0.32827832029 -0.27871724175 -0.31740799376 -0.29865162222 -1.0190023314e-13
          -3.2613608752e-13 -0.23709420289 -0.18796851986 0.25589531223 2.4886534816e-13 0.35509019606
          0.32233928625 5.2020391474e-13 0.2771527751 0.13567006092 0.21282994321 0.17719391139
          0.29708825773 0.062489988294 0.114159376 0.096765963843 0.15626005644 0.025146577182
          0.046285090327 0.040113167944 0.077158302278 -0.0004570086243 -0.00082260662186 0.012078216439
          0.021442950362 -0.026067089181 -0.047847477299 -0.012998930095 -0.02305919085 -0.063450707945
          -0.11544942081 -0.041054322893 -0.078662869885 -0.13603334114 -0.21269681096 -0.097545758586
          -0.15700355491 -0.2546720638 -0.3523699275 -0.17720132015 -0.29573997095 -2.4690227735e-13
          -5.1392894811e-13 -0.31951431449 -0.27421172637 2.5918285337e-14 1.3004141325e-13 0.093319183211
          6.4663125303e-13 1.1756927407e-12 0.31150734997 1.4863537754e-14 0.056536593581 -9.7782268735e-15
          0.040943012073 -9.7363129727e-16 0.016084330844 3.9799061738e-14 0.039505453505 1.3091192522e-15
          0.0081873877508 -3.4077171855e-15 0.0090056001601 2.107669041e-17 -0.00010877818425 4.1529564382e-15
          0.0046108829246 -1.2803151641e-15 -0.0084229740662 -4.0524195791e-15 -0.0048542036245 9.866133725e-16
          -0.016406202359 3.6561506708e-15 -0.0092139798239 -1.4648362715e-14 -0.056539698476 -3.9780651061e-14
          -0.03985596744 -2.6731327182e-14 -0.093808952189 9.8249312957e-15 -0.041096164371 -1.2851021793e-13
          -1.1663329524e-12 -6.4336341449e-13 -0.30983161934
        </DataArray>
        <DataArray type="Float64" Name="p" format="ascii" RangeMin="-83.79663075" RangeMax="83.099086861">
          -0.37145991068 -0.44581513928 -0.37314890783 -0.29561904153 -0.40863752498 -0.40948202355
          -0.33438397468 -0.33353947611 -0.37151074983 -0.53919088144 -0.41079137094 -0.49250301036
          -0.47499112619 -0.39197013938 -0.44223657487 -0.47302374268 -0.35153811937 -0.50610731206
          -0.41228093103 -0.38116474516 -0.44363602861 -0.26444537929 -0.19152238481 -0.36873456098
          -0.22798388205 -0.27153025209 -0.32013240654 0.028023378542 0.027972132081 -0.11821100037
          0.027997755311 -0.081775126363 -0.099993063369 0.32016625054 0.24722240149 0.17409481454
          0.28369432601 0.13759726678 0.15584604066 0.52821389503 0.40683591824 0.42419007278
          0.46752490663 0.32702915986 0.37560961632 0.59438402528 0.46607144321 0.56129896016
          0.53022773425 0.43645368073 0.49887632044 0.50139977422 0.42873700435 0.54789189975
          0.46506838929 0.44740422378 0.49764806177 0.42706620335 0.35120041525 0.46423298879
          0.3891333093 0.3899687098 0.42710084929 -0.3427461631 -0.17578980714 -0.35794753546
          -0.25926798512 -0.23570442434 -0.2968259799 -0.39915232232 -0.40497184663 -0.37094924271
          -0.38145969105 -0.33947615579 -0.34550713758 -0.36931423906 -0.37523949211 -0.18284472312
          -0.18718355396 -0.26116043946 -0.26634534577 0.028555537825 0.028263834953 -0.077144592648
          -0.079459859506 0.23948570509 0.24335405329 0.13402062146 0.13580894412 0.39526164404
          0.40104878114 0.31737367456 0.32220141721 0.45473006339 0.4604007533 0.42499585371
          0.43072476722 0.39894387637 0.41384044036 0.42683696988 0.43712059683 0.23209196313
          0.29164618919 0.31551791975 0.35274331478 -0.42294235532 -0.16397840332 -0.38284425921
          -0.29346037932 -0.16988410523 -0.27636418222 -0.50411332627 -0.45163282429 -0.46352784079
          -0.41723854175 -0.4271037635 -0.38328995965 -0.46560854488 -0.41746139197 -0.22930811522
          -0.20607641917 -0.32820593936 -0.29468318941 0.030646563195 0.02960105051 -0.099330776013
          -0.088237684331 0.2895461904 0.26451594774 0.1600963768 0.14705849913 0.48522505934
          0.44024335169 0.38738562487 0.35237964971 0.56115413001 0.5079420967 0.52318959467
          0.47409272419 0.48084372527 0.43989380082 0.52099892764 0.47391794876 0.22286433638
          0.22747814975 0.35185403082 0.33368597529 -0.67232787026 -0.32171859415 -0.54763511279
          -0.49702323221 -0.24284849873 -0.39524180576 -0.77598586649 -0.64004959638 -0.72415686838
          -0.59384235458 -0.63405734013 -0.53058055182 -0.70502160331 -0.5853150741 -0.33716756497
          -0.28323784009 -0.48561245255 -0.40690919596 0.035977968056 0.033312265625 -0.15059479846
          -0.12496278723 0.40679798084 0.34817208562 0.22138797445 0.19074217562 0.69848565485
          0.59185535709 0.55264181785 0.47001372136 0.83663408682 0.69889410841 0.76755987084
          0.64537473275 0.73385940251 0.60735156389 0.78524674467 0.65312283615 0.38554897844
          0.30420665741 0.55970419048 0.45577911065 -1.2357868507 -0.68621200194 -0.9540573605
          -0.96099942633 -0.50396529805 -0.72901132927 -1.2738784773 -1.0249321719 -1.254832664
          -0.9894947662 -0.99823505881 -0.81614619947 -1.1360567681 -0.92053918569 -0.51423260462
          -0.42570008479 -0.75623383171 -0.62092314213 0.047365101129 0.041671534593 -0.23343375174
          -0.1920142751 0.60408223623 0.50544010853 0.32572366868 0.27355582156 1.0765044464
          0.88749505062 0.84029334131 0.69646757958 1.3414521341 1.0890431105 1.2089782902
          0.98826908054 1.3011029947 1.0174811986 1.3212775644 1.0532621545 0.75836214456
          0.5719555615 1.0297325696 0.79471838006 -2.167015566 -1.6277305695 -1.7014012084
          -1.8973730678 -1.1569712857 -1.429186247 -2.1502050549 -1.7120417661 -2.1586103104
          -1.7067214872 -1.5374916088 -1.2678633338 -1.8438483318 -1.48995255 -0.76451428987
          -0.63937344724 -1.1510029493 -0.95361839051 0.067172713038 0.057268907083 -0.34867078841
          -0.29105227008 0.89045716684 0.74726970153 0.47881493994 0.40226930431 1.6408416041
          1.3586730253 1.2656493855 1.0529713634 2.2284965516 1.7849743428 1.9346690778
          1.571823684 2.2366698869 1.7688864408 2.2325832193 1.7769303918 1.7046533161
          1.2315077303 1.9706616015 1.5001970856 -4.2794083433 -3.0461698303 -3.2232119546
          -3.6627890868 -2.3369501999 -2.7800810773 -3.3733835912 -2.7617943231 -3.8263959673
          -2.9925031389 -2.2738336205 -1.9056626146 -2.8236086059 -2.3337284689 -1.0404549925
          -0.90248464118 -1.6571443065 -1.4040736279 0.09259951338 0.079886113209 -0.47392773956
          -0.41129926399 1.2134822466 1.0519697067 0.65304087999 0.56592790996 2.4132161215
          2.0270288628 1.8133491841 1.5394992848 3.4647956762 2.8466461139 2.9390058989
          2.4368374884 4.3356357897 3.2861528383 3.9002157329 3.0663994761 3.1183566658
          2.4115049909 3.7269962277 2.8488289146 -6.8348287237 -7.5626937619 -5.5571185335
          -7.1987612428 -5.3044317961 -5.4307751648 -5.4042043054 -4.3887939483 -6.1195165146
          -4.9729562409 -2.8651815504 -2.5695075854 -4.1346929279 -3.4791507669 -1.2814140813
          -1.1609345369 -2.0732978158 -1.8652210612 0.10901123754 0.10080537546 -0.58620142187
          -0.53006458072 1.4882072446 1.3508447456 0.79860924105 0.72582506052 3.0300682662
          2.7216421939 2.2591377554 2.0362434697 5.5025951907 4.4836954334 4.2663317285
          3.6026688137 6.8701633562 5.602899573 6.1863792735 5.0432975032 7.5855528507
          5.3519547582 7.2278581035 5.4774271656 -16.32461894 -15.662184302 -11.579723832
          -15.993401621 -11.612439032 -11.596081432 -5.3623587862 -5.3832815458 -10.843488863
          -8.4815026887 -3.2986556043 -3.0819185773 -4.3305071952 -4.2326000616 -1.1295716758
          -1.2054928785 -2.21411364 -2.1437057279 0.10405001054 0.10653062404 -0.51276083262
          -0.54948112724 1.318207137 1.4032071908 0.71112857378 0.75486890741 3.4522373569
          3.2411528116 2.385222247 2.3221800012 5.4226281196 5.4626116551 4.4374327382
          4.3518822334 16.257165622 11.563664489 10.839896871 8.513138072 15.534739608
          11.560146229 15.895952615 11.561905359 -4.0575327909 -83.79663075 -10.191075865
          -43.927081771 -49.729407526 -29.960241696 -6.2316705901 -5.7970146881 -5.1446016905
          -7.9940452767 -1.3266796578 -2.312667631 -3.7791751239 -4.0548411596 -0.94818207245
          -1.0388768741 -1.1374308651 -1.6757722526 0.086242669073 0.095146339807 -0.43096970169
          -0.47186526715 1.1165700376 1.2173885873 0.60140635335 0.65626746357 1.4268981778
          2.4395677673 1.2717341077 1.8284781773 6.2575281766 5.8400781481 3.8422131772
          4.1398229577 3.9553247943 10.106245208 5.1064264854 7.973161678 83.099086861
          49.316913234 43.527205827 29.711579221
        </DataArray>
      </PointData>
      <CellData>
        <DataArray type="Int32" Name="libmesh_elem_id" format="ascii" RangeMin="0" RangeMax="99">
          0 1 2 3 4 5
          6 7 8 9 10 11
          12 13 14 15 16 17
          18 19 20 21 22 23
          24 25 26 27 28 29
          30 31 32 33 34 35
          36 37 38 39 40 41
          42 43 44 45 46 47
          48 49 50 51 52 53
          54 55 56 57 58 59
          60 61 62 63 64 65
          66 67 68 69 70 71
          72 73 74 75 76 77
          78 79 80 81 82 83
          84 85 86 87 88 89
          90 91 92 93 94 95
          96 97 98 99
        </DataArray>
        <DataArray type="Int32" Name="subdomain_id" format="ascii" RangeMin="0" RangeMax="0">
          0 0 0 0 0 0
          0 0 0 0 0 0
          0 0 0 0 0 0
          0 0 0 0 0 0
          0 0 0 0 0 0
          0 0 0 0 0 0
          0 0 0 0 0 0
          0 0 0 0 0 0
          0 0 0 0 0 0
          0 0 0 0 0 0
          0 0 0 0 0 0
          0 0 0 0 0 0
          0 0 0 0 0 0
          0 0 0 0 0 0
          0 0 0 0 0 0
          0 0 0 0 0 0
          0 0 0 0
        </DataArray>
        <DataArray type="Int32" Name="processor_id" format="ascii" RangeMin="0" RangeMax="0">
          0 0 0 0 0 0
          0 0 0 0 0 0
          0 0 0 0 0 0
          0 0 0 0 0 0
          0 0 0 0 0 0
          0 0 0 0 0 0
          0 0 0 0 0 0
          0 0 0 0 0 0
          0 0 0 0 0 0
          0 0 0 0 0 0
          0 0 0 0 0 0
          0 0 0 0 0 0
          0 0 0 0 0 0
          0 0 0 0 0 0
          0 0 0 0 0 0
          0 0 0 0 0 0
          0 0 0 0
        </DataArray>
      </CellData>
      <Points>
        <DataArray type="Float64" Name="Points" NumberOfComponents="3" format="ascii" RangeMin="0" RangeMax="1.4142135624">
          0 0 0 0.1 0 0
          0.1 0.1 0 0 0.1 0
          0.05 0 0 0.1 0.05 0
          0.05 0.1 0 0 0.05 0
          0.05 0.05 0 0.2 0 0
          0.2 0.1 0 0.15 0 0
          0.2 0.05 0 0.15 0.1 0
          0.15 0.05 0 0.3 0 0
          0.3 0.1 0 0.25 0 0
          0.3 0.05 0 0.25 0.1 0
          0.25 0.05 0 0.4 0 0
          0.4 0.1 0 0.35 0 0
          0.4 0.05 0 0.35 0.1 0
          0.35 0.05 0 0.5 0 0
          0.5 0.1 0 0.45 0 0
          0.5 0.05 0 0.45 0.1 0
          0.45 0.05 0 0.6 0 0
          0.6 0.1 0 0.55 0 0
          0.6 0.05 0 0.55 0.1 0
          0.55 0.05 0 0.7 0 0
          0.7 0.1 0 0.65 0 0
          0.7 0.05 0 0.65 0.1 0
          0.65 0.05 0 0.8 0 0
          0.8 0.1 0 0.75 0 0
          0.8 0.05 0 0.75 0.1 0
          0.75 0.05 0 0.9 0 0
          0.9 0.1 0 0.85 0 0
          0.9 0.05 0 0.85 0.1 0
          0.85 0.05 0 1 0 0
          1 0.1 0 0.95 0 0
          1 0.05 0 0.95 0.1 0
          0.95 0.05 0 0.1 0.2 0
          0 0.2 0 0.1 0.15 0
          0.05 0.2 0 0 0.15 0
          0.05 0.15 0 0.2 0.2 0
          0.2 0.15 0 0.15 0.2 0
          0.15 0.15 0 0.3 0.2 0
          0.3 0.15 0 0.25 0.2 0
          0.25 0.15 0 0.4 0.2 0
          0.4 0.15 0 0.35 0.2 0
          0.35 0.15 0 0.5 0.2 0
          0.5 0.15 0 0.45 0.2 0
          0.45 0.15 0 0.6 0.2 0
          0.6 0.15 0 0.55 0.2 0
          0.55 0.15 0 0.7 0.2 0
          0.7 0.15 0 0.65 0.2 0
          0.65 0.15 0 0.8 0.2 0
          0.8 0.15 0 0.75 0.2 0
          0.75 0.15 0 0.9 0.2 0
          0.9 0.15 0 0.85 0.2 0
          0.85 0.15 0 1 0.2 0
          1 0.15 0 0.95 0.2 0
          0.95 0.15 0 0.1 0.3 0
          0 0.3 0 0.1 0.25 0
          0.05 0.3 0 0 0.25 0
          0.05 0.25 0 0.2 0.3 0
          0.2 0.25 0 0.15 0.3 0
          0.15 0.25 0 0.3 0.3 0
          0.3 0.25 0 0.25 0.3 0
          0.25 0.25 0 0.4 0.3 0
          0.4 0.25 0 0.35 0.3 0
          0.35 0.25 0 0.5 0.3 0
          0.5 0.25 0 0.45 0.3 0
          0.45 0.25 0 0.6 0.3 0
          0.6 0.25 0 0.55 0.3 0
          0.55 0.25 0 0.7 0.3 0
          0.7 0.25 0 0.65 0.3 0
          0.65 0.25 0 0.8 0.3 0
          0.8 0.25 0 0.75 0.3 0
          0.75 0.25 0 0.9 0.3 0
          0.9 0.25 0 0.85 0.3 0
          0.85 0.25 0 1 0.3 0
          1 0.25 0 0.95 0.3 0
          0.95 0.25 0 0.1 0.4 0
          0 0.4 0 0.1 0.35 0
          0.05 0.4 0 0 0.35 0
          0.05 0.35 0 0.2 0.4 0
          0.2 0.35 0 0.15 0.4 0
          0.15 0.35 0 0.3 0.4 0
          0.3 0.35 0 0.25 0.4 0
          0.25 0.35 0 0.4 0.4 0
          0.4 0.35 0 0.35 0.4 0
          0.35 0.35 0 0.5 0.4 0
          0.5 0.35 0 0.45 0.4 0
          0.45 0.35 0 0.6 0.4 0
          0.6 0.35 0 0.55 0.4 0
          0.55 0.35 0 0.7 0.4 0
          0.7 0.35 0 0.65 0.4 0
          0.65 0.35 0 0.8 0.4 0
          0.8 0.35 0 0.75 0.4 0
          0.75 0.35 0 0.9 0.4 0
          0.9 0.35 0 0.85 0.4 0
          0.85 0.35 0 1 0.4 0
          1 0.35 0 0.95 0.4 0
          0.95 0.35 0 0.1 0.5 0
          0 0.5 0 0.1 0.45 0
          0.05 0.5 0 0 0.45 0
          0.05 0.45 0 0.2 0.5 0
          0.2 0.45 0 0.15 0.5 0
          0.15 0.45 0 0.3 0.5 0
          0.3 0.45 0 0.25 0.5 0
          0.25 0.45 0 0.4 0.5 0
          0.4 0.45 0 0.35 0.5 0
          0.35 0.45 0 0.5 0.5 0
          0.5 0.45 0 0.45 0.5 0
          0.45 0.45 0 0.6 0.5 0
          0.6 0.45 0 0.55 0.5 0
          0.55 0.45 0 0.7 0.5 0
          0.7 0.45 0 0.65 0.5 0
          0.65 0.45 0 0.8 0.5 0
          0.8 0.45 0 0.75 0.5 0
          0.75 0.45 0 0.9 0.5 0
          0.9 0.45 0 0.85 0.5 0
          0.85 0.45 0 1 0.5 0
          1 0.45 0 0.95 0.5 0
          0.95 0.45 0 0.1 0.6 0
          0 0.6 0 0.1 0.55 0
          0.05 0.6 0 0 0.55 0
          0.05 0.55 0 0.2 0.6 0
          0.2 0.55 0 0.15 0.6 0
          0.15 0.55 0 0.3 0.6 0
          0.3 0.55 0 0.25 0.6 0
          0.25 0.55 0 0.4 0.6 0
          0.4 0.55 0 0.35 0.6 0
          0.35 0.55 0 0.5 0.6 0
          0.5 0.55 0 0.45 0.6 0
          0.45 0.55 0 0.6 0.6 0
          0.6 0.55 0 0.55 0.6 0
          0.55 0.55 0 0.7 0.6 0
          0.7 0.55 0 0.65 0.6 0
          0.65 0.55 0 0.8 0.6 0
          0.8 0.55 0 0.75 0.6 0
          0.75 0.55 0 0.9 0.6 0
          0.9 0.55 0 0.85 0.6 0
          0.85 0.55 0 1 0.6 0
          1 0.55 0 0.95 0.6 0
          0.95 0.55 0 0.1 0.7 0
          0 0.7 0 0.1 0.65 0
          0.05 0.7 0 0 0.65 0
          0.05 0.65 0 0.2 0.7 0
          0.2 0.65 0 0.15 0.7 0
          0.15 0.65 0 0.3 0.7 0
          0.3 0.65 0 0.25 0.7 0
          0.25 0.65 0 0.4 0.7 0
          0.4 0.65 0 0.35 0.7 0
          0.35 0.65 0 0.5 0.7 0
          0.5 0.65 0 0.45 0.7 0
          0.45 0.65 0 0.6 0.7 0
          0.6 0.65 0 0.55 0.7 0
          0.55 0.65 0 0.7 0.7 0
          0.7 0.65 0 0.65 0.7 0
          0.65 0.65 0 0.8 0.7 0
          0.8 0.65 0 0.75 0.7 0
          0.75 0.65 0 0.9 0.7 0
          0.9 0.65 0 0.85 0.7 0
          0.85 0.65 0 1 0.7 0
          1 0.65 0 0.95 0.7 0
          0.95 0.65 0 0.1 0.8 0
          0 0.8 0 0.1 0.75 0
          0.05 0.8 0 0 0.75 0
          0.05 0.75 0 0.2 0.8 0
          0.2 0.75 0 0.15 0.8 0
          0.15 0.75 0 0.3 0.8 0
          0.3 0.75 0 0.25 0.8 0
          0.25 0.75 0 0.4 0.8 0
          0.4 0.75 0 0.35 0.8 0
          0.35 0.75 0 0.5 0.8 0
          0.5 0.75 0 0.45 0.8 0
          0.45 0.75 0 0.6 0.8 0
          0.6 0.75 0 0.55 0.8 0
          0.55 0.75 0 0.7 0.8 0
          0.7 0.75 0 0.65 0.8 0
          0.65 0.75 0 0.8 0.8 0
          0.8 0.75 0 0.75 0.8 0
          0.75 0.75 0 0.9 0.8 0
          0.9 0.75 0 0.85 0.8 0
          0.85 0.75 0 1 0.8 0
          1 0.75 0 0.95 0.8 0
          0.95 0.75 0 0.1 0.9 0
          0 0.9 0 0.1 0.85 0
          0.05 0.9 0 0 0.85 0