<?xml version="1.0"?>
<VTKFile type="UnstructuredGrid" version="0.1" byte_order="LittleEndian" compressor="vtkZLibDataCompressor">
  <UnstructuredGrid>
    <Piece NumberOfPoints="441" NumberOfCells="100">
      <PointData>
        <DataArray type="Float64" Name="u" format="ascii" RangeMin="-0.1954932887" RangeMax="1">
          2.0863855639e-16 -1.5384531291e-16 -0.0049972689607 2.7381915584e-17 6.5388870873e-16 -0.0019237697547
          -0.0012245293139 9.2134534916e-16 -0.00019352111639 -2.8975791289e-15 -0.018845843242 -5.0253740608e-15
          -0.0092949997442 -0.010986255001 -0.0048686261402 -6.9096400033e-15 -0.03615711917 -1.9668083547e-14
          -0.0191931773 -0.027534413472 -0.014240130182 -1.0103056865e-14 -0.049844734357 -3.4510242803e-14
          -0.027110376175 -0.043866693445 -0.023675901027 -1.1302728409e-14 -0.054971156546 -4.3543743787e-14
          -0.030087181387 -0.053716759466 -0.02940403557 -1.0098177741e-14 -0.049831442114 -4.353080726e-14
          -0.027102107325 -0.053707436217 -0.029397870999 -6.9088160273e-15 -0.036154974588 -3.4493926361e-14
          -0.019192965469 -0.043854930231 -0.023668668108 -2.9038719095e-15 -0.018864603538 -1.9681034129e-14
          -0.0093082746732 -0.027543883521 -0.014247870098 -1.5847878879e-16 -0.0050131122394 -5.0529580983e-15
          -0.0019340124557 -0.011008492776 -0.0048839499209 2.0878863264e-16 2.5656270102e-17 6.4852624122e-16
          9.1770454633e-16 -0.0012308920377 -0.00019712952779 -0.011083034991 -1.4985193734e-16 -0.0081159804821
          -0.0029850129712 -3.7129472413e-16 -0.0021589937183 -0.037058746643 -0.028103751004 -0.022901824007
          -0.017038111584 -0.06648472075 -0.051715049665 -0.052070719459 -0.040052057288 -0.088828249167
          -0.070030165806 -0.079122106611 -0.062048162724 -0.097051921422 -0.076839373045 -0.095016446477
          -0.075161040769 -0.088773301136 -0.070004289577 -0.094983494569 -0.07514436076 -0.066431295763
          -0.051698985821 -0.07905788695 -0.062020989582 -0.037051262779 -0.028118182091 -0.052038045229
          -0.040051456703 -0.011097097329 -0.0081338849334 -0.022913723814 -0.017061062616 -1.5282972996e-16
          -3.8074078304e-16 -0.0029926289647 -0.0021667691906 -0.016981810943 -2.5075638646e-16 -0.013997101481
          -0.0046389343319 -7.7231458958e-16 -0.0037902746846 -0.054867058118 -0.045908724019 -0.034541521654
          -0.028676733583 -0.095425208452 -0.080967661046 -0.075839505295 -0.063915955363 -0.12491133963
          -0.10703235902 -0.11223089979 -0.095762788738 -0.13547533861 -0.11650743876 -0.1328802244
          -0.11416793947 -0.12471484347 -0.1069226723 -0.13276974874 -0.1141047708 -0.095174748329
          -0.080839884428 -0.11198142903 -0.095627507503 -0.054718806273 -0.04585069996 -0.075624799915
          -0.063815920807 -0.016953253882 -0.01399766623 -0.03446409199 -0.028658058934 -2.5545148716e-16
          -7.8886426542e-16 -0.0046376403775 -0.0037960986525 -0.023558798693 -4.541811166e-16 -0.020152837359
          -0.0065899707634 -1.4487977719e-15 -0.0055951106405 -0.073720794582 -0.064123357974 -0.047159062244
          -0.040652601318 -0.1242448099 -0.10996012238 -0.10029456682 -0.08801502157 -0.15890845877
          -0.14242661337 -0.14422384829 -0.1285538978 -0.1708281679 -0.15385502264 -0.16795898633
          -0.15107173854 -0.15842865625 -0.14210571182 -0.1676966479 -0.15089416356 -0.12357028131
          -0.10952745396 -0.14359276491 -0.12813824485 -0.073229442928 -0.06383311028 -0.099665846575
          -0.087625229621 -0.023403872728 -0.020073825853 -0.046843548468 -0.040479077524 -4.5564586846e-16
          -1.4613803382e-15 -0.0065523439328 -0.0055793033599 -0.031406116619 -5.4392008909e-16 -0.027260535551
          -0.0087764634634 -1.7887935286e-15 -0.0075051637593 -0.093307553923 -0.083611281266 -0.061518700382
          -0.054213489253 -0.14906964079 -0.13769347762 -0.12346026465 -0.11236135662 -0.1834131746
          -0.17325143281 -0.16931628328 -0.15838372005 -0.19431379826 -0.1850793958 -0.19178707763
          -0.1822755382 -0.18257084509 -0.17258830401 -0.19133637183 -0.18191665598 -0.14778855048
          -0.13672488485 -0.16817264785 -0.15749830042 -0.092248796604 -0.082856778821 -0.1221958752
          -0.11143162171 -0.031010739347 -0.027000922744 -0.060773254327 -0.053703169086 -5.4180702346e-16
          -1.7938554149e-15 -0.0086715655454 -0.0074418427319 -0.041113277694 -1.6453189764e-15 -0.036135815387
          -0.012744035018 -4.8691661919e-15 -0.010886201304 -0.10954676782 -0.10224295811 -0.07611925408
          -0.068735449056 -0.15736365877 -0.15665538416 -0.13747343001 -0.13260537531 -0.17898741344
          -0.18666600026 -0.17091164098 -0.17468855535 -0.18426477769 -0.1954932887 -0.18320042311
          -0.19352318715 -0.17800131735 -0.18569429522 -0.18269085471 -0.1930112041 -0.15567463975
          -0.15510097444 -0.16950047993 -0.17333966509 -0.107908954 -0.10086980783 -0.13566836844
          -0.13101863903 -0.040390219006 -0.035576703869 -0.074861999492 -0.067731274655 -1.6100662334e-15
          -4.7881136328e-15 -0.01251653267 -0.010717356945 -0.052069444011 -1.2585679868e-15 -0.046225051554
          -0.015785959713 -4.074239405e-15 -0.013058643857 -0.11021915061 -0.11377943626 -0.088738016104
          -0.084109036444 -0.12010225869 -0.147178084 -0.11995929121 -0.13487113034 -0.10901565721
          -0.15534485639 -0.11534175022 -0.15340438076 -0.10245978417 -0.15536177234 -0.10417746641
          -0.1555534377 -0.10864149 -0.15454189865 -0.1040111812 -0.15515120586 -0.11908102895
          -0.14562696151 -0.11466786832 -0.15219224736 -0.10869418187 -0.11203170292 -0.11857914857
          -0.13308299023 -0.05114973608 -0.045366691379 -0.087315240525 -0.082660778079 -1.2142397556e-15
          -3.9325884025e-15 -0.015484531406 -0.012800341395 -0.060672131933 -1.1856809027e-14 -0.058791632128
          -0.032375488542 -2.9858521892e-14 -0.025643364612 -0.052158721971 -0.092742769769 -0.0709359857
          -0.084813172308 0.022879792188 -0.067963372543 -0.017273488573 -0.086165080769 0.082132922463
          -0.032382452016 0.057301446774 -0.048185091757 0.10265827459 -0.01868845208 0.097798114855
          -0.022032102379 0.08104390394 -0.032690535396 0.097201872475 -0.022232038008 0.021454691947
          -0.067984260689 0.055916259954 -0.048434287874 -0.052610444593 -0.091950469483 -0.018349473812
          -0.085765242616 -0.060244802288 -0.057960457362 -0.070692299895 -0.083774805019 -1.1726547919e-14
          -2.9426656287e-14 -0.03208050348 -0.02528361663 0.014162265298 -4.8914045885e-14 -0.04684891701
          -0.019310125237 -3.8067852064e-14 -0.022165215633 0.21438845061 0.031229902342 0.093011983512
          -0.039906331318 0.37638833365 0.16768874145 0.31606037668 0.11092723489 0.45016524972
          0.24146374756 0.41914175507 0.21018685138 0.47426908285 0.26691271747 0.46915405751
          0.26121001291 0.44842545436 0.23976406876 0.46830688432 0.26034892669 0.37320543949
          0.16493919532 0.41658023061 0.20781409182 0.2105523928 0.028915867106 0.31237054715
          0.10815868745 0.012611378773 -0.047244883356 0.089937518071 -0.041227019109 -4.8473879868e-14
          -3.6963580128e-14 -0.018767192193 -0.021970324184 1 0.5 0.2497686231
          1 -8.3808161129e-14 0.017847455724 1 0.5440607048 1
          0.45938976659 1 0.65413596285 1 0.60684053244 1
          0.70741321315 1 0.68891665532 1 0.72124169608 1
          0.71815886945 1 0.70643321112 1 0.71764060948 1
          0.652020029 1 0.68740748822 1 0.54114004605 1
          0.60415148131 1 0.24692253521 1 0.45610736226 0.5
          -8.4032587299e-14 1 0.01609275793
        </DataArray>
        <DataArray type="Float64" Name="v" format="ascii" RangeMin="-0.35961690309" RangeMax="0.36261799273">
          -2.0882562941e-16 -2.0327476653e-18 0.004919687702 9.4201552427e-17 -8.9250012261e-16 0.0012069538058
          0.0019069897667 -6.6260493149e-16 0.00019771611339 1.8133263996e-16 0.0091146814234 5.2632107907e-16
          0.0024614047881 0.007505835201 0.0020110568733 2.0344010032e-16 0.0091050017825 8.2793519827e-16
          0.0025087751102 0.0096428759019 0.0026505461355 1.2021382574e-16 0.005502923698 6.8985420987e-16
          0.0015195395142 0.0076651721549 0.0021270312466 -4.703969933e-19 -6.5619087706e-06 2.5111068781e-16
          -1.6387734808e-06 0.0028697918083 0.00079559288839 -1.2042024768e-16 -0.0055053904938 -2.53846947e-16
          -0.0015195314226 -0.0028799043791 -0.00079801727817 -2.02564388e-16 -0.0090919831642 -6.8826422122e-16
          -0.0025041530335 -0.0076585697392 -0.0021242420165 -1.808060379e-16 -0.0091076541851 -8.2439382836e-16
          -0.0024589600018 -0.0096295244361 -0.0026458417881 1.1082267618e-18 -0.0049320809198 -5.275871317e-16
          -0.0012106742044 -0.0075095898162 -0.0020121645313 2.0919140074e-16 -9.988584548e-17 8.902000911e-16
          6.5760075055e-16 -0.0019193017601 -0.00020080720168 0.020071953623 2.9283022396e-15 0.011125081255
          0.010063752415 4.9786745537e-15 0.0050180769576 0.032555112946 0.019251881357 0.027903270821
          0.01613992144 0.031385395116 0.018917301942 0.033654420756 0.020143693821 0.018739855833
          0.011378980027 0.026198439146 0.015865119817 -2.6226285058e-05 -1.2293591504e-05 0.0097422446381
          0.0059270987203 -0.018756092552 -0.011382493564 -0.0097845989675 -0.0059457502972 -0.031343849695
          -0.018889385174 -0.026182497686 -0.015850525885 -0.032520880049 -0.019234090704 -0.033605793535
          -0.020114362828 -0.020099938184 -0.011146262194 -0.027900517174 -0.016142899172 -2.949779985e-15
          -5.0274537957e-15 -0.010099869967 -0.0050408828731 0.045567637304 8.4637708465e-15 0.03148659911
          0.02471984652 2.2163344481e-14 0.016548173382 0.068401753054 0.048889395432 0.060442964375
          0.042599016495 0.063617274703 0.046308656118 0.069239725958 0.050006713537 0.037311304315
          0.027424979093 0.052540928991 0.038463740018 -9.5157152632e-05 -4.8902344119e-05 0.019295614122
          0.01422518359 -0.037407494646 -0.027464000344 -0.019460349673 -0.014306850186 -0.063538973375
          -0.046246905997 -0.052546699061 -0.038448633423 -0.068277849341 -0.048821183649 -0.069113399892
          -0.049924976561 -0.045568514738 -0.03151014715 -0.060372146827 -0.042573992341 -8.5005875788e-15
          -2.2279457656e-14 -0.024763889481 -0.016592394874 0.08190732765 1.646384924e-14 0.06219587616
          0.04597010301 4.9256186445e-14 0.034378842836 0.11650379903 0.090904006916 0.10551970152
          0.081290853087 0.10450161297 0.083078746749 0.11560104896 0.091127265413 0.05989739871
          0.048217153846 0.085195669084 0.068202975585 -0.00028089938071 -0.00016610941035 0.030737273968
          0.024849840852 -0.060243551202 -0.048404580003 -0.031241504714 -0.025143153427 -0.10439734465
          -0.082980257175 -0.085320817526 -0.068246509498 -0.11614879263 -0.090686478443 -0.11532212893
          -0.09093309557 -0.081730753783 -0.062137473267 -0.10521060412 -0.081131051893 -1.6490328478e-14
          -4.9389241995e-14 -0.045938019321 -0.034402086416 0.12983154526 2.786315579e-14 0.10435156874
          0.075034086257 8.7008396795e-14 0.059233570965 0.17557481628 0.14475520868 0.16298124282
          0.13270009195 0.15046189157 0.12724560165 0.1701049966 0.14210002347 0.083577245514
          0.071903385446 0.12051770603 0.10291498539 -0.00064455975127 -0.00043762422074 0.042432148029
          0.036717627448 -0.084461438922 -0.072474403754 -0.04361511848 -0.037512269693 -0.15040414862
          -0.12714762393 -0.12096019068 -0.1031651671 -0.17478084336 -0.14420856704 -0.16959971062
          -0.1417132741 -0.12919057341 -0.10398764209 -0.16214690576 -0.13217067137 -2.7798649158e-14
          -8.6974911816e-14 -0.074732153243 -0.059103165832 0.19202345417 4.328790664e-14 0.15840828963
          0.11444799099 1.4193395213e-13 0.092982544385 0.23929718664 0.20764064794 0.23155998223
          0.19582608232 0.19172248562 0.1726481608 0.22360748658 0.197991934 0.10163709316
          0.09395961666 0.14963798169 0.13670687571 -0.0011467382152 -0.00089270845442 0.050808185899
          0.047370515511 -0.1033482522 -0.095239852316 -0.052951722878 -0.049024649169 -0.1919184589
          -0.17268576388 -0.15067214839 -0.13741741335 -0.23791254962 -0.20656033612 -0.22293798004
          -0.19738480654 -0.19043968711 -0.15737658542 -0.22982451987 -0.19459393772 -4.29778055e-14
          -1.4124670269e-13 -0.11352534175 -0.092434191937 0.26135601694 6.6924194307e-14 0.22733648676
          0.16618661765 2.1290557331e-13 0.13775182787 0.28982537729 0.26776438044 0.29729541662
          0.26654795744 0.20745762762 0.20482998412 0.25540004755 0.2440983216 0.10273331544
          0.10517632903 0.15552289991 0.15700658797 -0.0015151633678 -0.0013900733631 0.050384395326
          0.05207886192 -0.10521631768 -0.1073479359 -0.053279628296 -0.054703887146 -0.20823103307
          -0.20530034109 -0.15729458694 -0.15844183362 -0.28814182609 -0.26616391235 -0.25495201748
          -0.24348656845 -0.25863907603 -0.22516973729 -0.29473348531 -0.26434681814 -6.617326669e-14
          -2.1090045784e-13 -0.16433310345 -0.13640158896 0.34339214914 1.0526863948e-13 0.29713947874
          0.24605674385 3.4179130988e-13 0.19860913977 0.27851331636 0.29865220321 0.3354205899
          0.32153573552 0.16810680634 0.19632232138 0.22059886239 0.2510803668 0.075638960438
          0.093289925696 0.11974046842 0.14359878235 -0.0013074826608 -0.0015176592494 0.035989135025
          0.045200102179 -0.078011895182 -0.095920313166 -0.038544014075 -0.048140361707 -0.16952882192
          -0.1974906785 -0.1217708684 -0.14564877912 -0.27754590671 -0.29721094705 -0.22103648457
          -0.25105380322 -0.33963753026 -0.29385082412 -0.33276654218 -0.31879447707 -1.0386069008e-13
          -3.3765363527e-13 -0.24305127107 -0.19620781727 0.25960724121 2.4917755765e-13 0.36261799273
          0.32403296966 5.2461702052e-13 0.28090979082 0.14160185383 0.22448651384 0.18239923023
          0.30734554089 0.067925486279 0.12484709943 0.10274705645 0.16800581062 0.028258143968
          0.052424485037 0.044554569104 0.085900933596 -0.00050592821648 -0.00092702549791 0.013659881298
          0.024563231959 -0.029273662163 -0.054178178987 -0.014678459714 -0.026384138266 -0.068955043253
          -0.12624929813 -0.045582482764 -0.087570193206 -0.14194032824 -0.22427696898 -0.10355882812
          -0.1687763764 -0.25824244879 -0.35961690309 -0.18231792466 -0.30580540649 -2.4714044403e-13
          -5.178651334e-13 -0.32106812992 -0.27772104069 2.5952383437e-14 1.298933837e-13 0.094328583415
          6.4612424464e-13 1.1754748021e-12 0.31178136908 1.4969117609e-14 0.058212241027 -9.3591637905e-15
          0.042437674298 -8.6895371682e-16 0.01763012305 4.0242385141e-14 0.041205650329 1.3660892891e-15
          0.0090679038018 -3.0648604208e-15 0.010271698632 2.710342699e-17 -0.00011779854371 4.2819737402e-15
          0.0050608964137 -1.3311283195e-15 -0.009327171278 -4.144939232e-15 -0.005325231684 8.8597663396e-16
          -0.017974377127 3.3360599214e-15 -0.010502483918 -1.4758330946e-14 -0.058220744744 -4.0231963724e-14
          -0.041578348596 -2.6744336831e-14 -0.094771001843 9.4385449057e-15 -0.042565128905 -1.2835961466e-13
          -1.1660003401e-12 -6.4278030773e-13 -0.31005635925
        </DataArray>
        <DataArray type="Float64" Name="p" format="ascii" RangeMin="-83.703826286" RangeMax="82.979917868">
          -0.31992784039 -0.40896572578 -0.32190880493 -0.22946450582 -0.36444678309 -0.36543726535
          -0.27568665537 -0.27469617311 -0.32006671923 -0.54469096996 -0.38613359325 -0.47682834787
          -0.4654122816 -0.35402119909 -0.41542477348 -0.503237233 -0.34804805006 -0.52396410148
          -0.42564264153 -0.36709082165 -0.44552746157 -0.29187475649 -0.19707585334 -0.39755599475
          -0.24447530491 -0.2725619517 -0.33505897322 0.022194467651 0.022171089933 -0.13484014442
          0.022182778792 -0.087452381702 -0.11114626306 0.33585618474 0.24110727497 0.17902532619
          0.28848172985 0.13163918245 0.15533225432 0.54663242587 0.39162002179 0.4412443053
          0.46912622383 0.31636364838 0.37880397684 0.58830893661 0.42982135396 0.56747068124
          0.50906514529 0.41072068787 0.48909568456 0.45320155177 0.36608919434 0.52075524419
          0.40964537305 0.39795527415 0.45935525917 0.36413088421 0.27355085101 0.40866621799
          0.31884086761 0.31982002267 0.36424312033 -0.26585280199 -0.062626265634 -0.29388080346
          -0.16423953381 -0.14604538573 -0.21996309459 -0.35284411534 -0.36948885429 -0.30934845867
          -0.33168482888 -0.3169612573 -0.33250465368 -0.33490268632 -0.35099675399 -0.17666574437
          -0.18687079885 -0.24681350084 -0.25968772627 0.023080603639 0.022625846786 -0.076792570365
          -0.082122476033 0.22217141109 0.23163934303 0.12262600737 0.12713259491 0.36132058736
          0.37647030458 0.29174599923 0.3040548238 0.3970251882 0.41342327108 0.37917288778
          0.39494678783 0.31095118964 0.33852019199 0.35398818892 0.37597173154 0.10775344493
          0.19065214797 0.20935231729 0.26458616998 -0.32447192778 -0.0120722474 -0.29516236489
          -0.16827208759 -0.037349256517 -0.1662558107 -0.44251270082 -0.39767840808 -0.3834923143
          -0.34642038648 -0.39259844085 -0.35477984908 -0.41755557083 -0.37622912858 -0.2156473571
          -0.19615655073 -0.30412289898 -0.27546819991 0.026295324776 0.024687964207 -0.094676016162
          -0.085734293263 0.26672601541 0.24444871325 0.1465106701 0.13456833873 0.44066589028
          0.40099323882 0.35369595285 0.32272097604 0.48907152819 0.44304835819 0.46486870924
          0.42202079851 0.37222648936 0.3415888395 0.43064900877 0.39231859885 0.061038694657
          0.084396069795 0.21663259201 0.21299245465 -0.5668790213 -0.15765735426 -0.44567547454
          -0.36226818778 -0.084864800831 -0.26527013768 -0.70764600811 -0.57507935446 -0.6372625147
          -0.5103774145 -0.59261250178 -0.49260547131 -0.65012925494 -0.53384241289 -0.31793027266
          -0.26678881488 -0.45527138722 -0.3796971431 0.034117732212 0.030206528494 -0.14190627022
          -0.11829114319 0.38287711759 0.3248015665 0.2084974249 0.1775040475 0.65025460754
          0.54546024891 0.51656586256 0.43513090771 0.75993724767 0.62450438793 0.7050959276
          0.58498231842 0.62011600742 0.49617124839 0.69002662754 0.56033781816 0.21394365566
          0.13749117516 0.41702983154 0.31683121177 -1.1419293276 -0.54772717277 -0.85440417444
          -0.84482825018 -0.35269226352 -0.60354821898 -1.2069125954 -0.95727930176 -1.1744209615
          -0.9058417381 -0.9527559084 -0.77268420509 -1.0798342519 -0.86498175342 -0.48958320214
          -0.4037567374 -0.72116955527 -0.58822047124 0.04950119421 0.041809463211 -0.22004100397
          -0.18097363709 0.58197276288 0.48242494023 0.31573697854 0.26211720172 1.0295635196
          0.83990906355 0.80576814122 0.66116700189 1.2694808171 1.0147090324 1.1495221683
          0.92730904798 1.2012215134 0.91066876043 1.2353511653 0.96268889641 0.61538370915
          0.41466368241 0.90830261129 0.66266622142 -2.0980887799 -1.5515274987 -1.6200090538
          -1.8248081393 -1.0496273357 -1.3348181948 -2.0882501383 -1.6475813669 -2.0931694591
          -1.6337952103 -1.487727014 -1.2202414612 -1.7879885761 -1.433911414 -0.73344998436
          -0.61151659325 -1.1105884992 -0.91587902722 0.073666129568 0.061583661889 -0.3298919274
          -0.27496646568 0.86969534158 0.72583405223 0.47168073557 0.39370885706 1.5950966625
          1.312330091 1.232396002 1.0190820716 2.1645329146 1.7170068659 1.8798147886
          1.5146684784 2.1633043324 1.6822629229 2.1639186235 1.6996348944 1.625410624
          1.1203971666 1.8943574782 1.4013300447 -4.2333177777 -3.0436282945 -3.1657032788
          -3.6384730361 -2.2975778966 -2.7316405877 -3.3109347095 -2.6995924239 -3.7721262436
          -2.9326478514 -2.2150594029 -1.8513932084 -2.7629970562 -2.2754928162 -1.0010948451
          -0.86727241473 -1.608077124 -1.3593328116 0.10111733187 0.087391730717 -0.44998875662
          -0.38994034201 1.1874619735 1.0285786575 0.64428965269 0.55798519413 2.3592163093
          1.9771564859 1.7733391414 1.5028675717 3.3996740331 2.7821034739 2.8794451712
          2.3796299799 4.2829961872 3.2231502598 3.8413351102 3.0026268668 3.1102612412
          2.3678359326 3.6966287142 2.7954930962 -6.7846142132 -7.5979447425 -5.5089659955
          -7.1912794779 -5.3207865185 -5.414876257 -5.3240385892 -4.3174866494 -6.0543264012
          -4.9132263224 -2.7850465885 -2.5000529957 -4.0545425889 -3.4087698225 -1.228752868
          -1.1149238566 -2.0068997283 -1.8074884261 0.11521555752 0.10816644469 -0.55676865524
          -0.50337870593 1.4433955929 1.3154287832 0.77930557521 0.71179761395 2.9468300867
          2.653023198 2.1951128398 1.9842259906 5.4101568055 4.4049154193 4.1784934461
          3.5289693086 6.8067328979 5.5448645425 6.1084448517 4.9748899809 7.6059358652
          5.3580985532 7.2063343815 5.4514815478 -16.232527796 -15.632171333 -11.508571005
          -15.932349565 -11.615058038 -11.561814521 -5.2307080139 -5.2773733016 -10.731617905
          -8.3929721532 -3.1687502871 -2.9768984378 -4.1997291505 -4.1271358697 -1.0491153849
          -1.1389341264 -2.108932836 -2.0579162821 0.10577894963 0.11049725358 -0.47166821762
          -0.51421843643 1.2364849646 1.3399402787 0.67113195711 0.72521876616 3.3106980288
          3.1287640578 2.2735914967 2.2343521682 5.26784454 5.3390006728 4.2892712844
          4.2338823653 16.140082852 11.473407875 10.703963696 8.4062042738 15.480584654
          11.543260259 15.810333753 11.508334067 -3.8978037167 -83.703826286 -10.065165756
          -43.800815001 -49.66799881 -29.866582283 -5.9840552009 -5.6073816074 -4.9409294588
          -7.8362736819 -1.0946656592 -2.1317079731 -3.53936043 -3.8695447903 -0.80892625887
          -0.92902082187 -0.95179595904 -1.5303643975 0.085518538995 0.095648744313 -0.36170385994
          -0.41668603878 0.97251971146 1.104502338 0.52901912523 0.60007554117 1.17982741
          2.2452627194 1.0761735607 1.6748825287 5.9877699676 5.6278072538 3.5837986888
          3.9365349866 3.769826365 9.9549546084 4.8787981663 7.7913809311 82.979917868
          49.230251261 43.374872116 29.592602935
        </DataArray>
      </PointData>
      <CellData>
        <DataArray type="Int32" Name="libmesh_elem_id" format="ascii" RangeMin="0" RangeMax="99">
          0 1 2 3 4 5
          6 7 8 9 10 11
          12 13 14 15 16 17
          18 19 20 21 22 23
          24 25 26 27 28 29
          30 31 32 33 34 35
          36 37 38 39 40 41
          42 43 44 45 46 47
          48 49 50 51 52 53
          54 55 56 57 58 59
          60 61 62 63 64 65
          66 67 68 69 70 71
          72 73 74 75 76 77
          78 79 80 81 82 83
          84 85 86 87 88 89
          90 91 92 93 94 95
          96 97 98 99
        </DataArray>
        <DataArray type="Int32" Name="subdomain_id" format="ascii" RangeMin="0" RangeMax="0">
          0 0 0 0 0 0
          0 0 0 0 0 0
          0 0 0 0 0 0
          0 0 0 0 0 0
          0 0 0 0 0 0
          0 0 0 0 0 0
          0 0 0 0 0 0
          0 0 0 0 0 0
          0 0 0 0 0 0
          0 0 0 0 0 0
          0 0 0 0 0 0
          0 0 0 0 0 0
          0 0 0 0 0 0
          0 0 0 0 0 0
          0 0 0 0 0 0
          0 0 0 0 0 0
          0 0 0 0
        </DataArray>
        <DataArray type="Int32" Name="processor_id" format="ascii" RangeMin="0" RangeMax="0">
          0 0 0 0 0 0
          0 0 0 0 0 0
          0 0 0 0 0 0
          0 0 0 0 0 0
          0 0 0 0 0 0
          0 0 0 0 0 0
          0 0 0 0 0 0
          0 0 0 0 0 0
          0 0 0 0 0 0
          0 0 0 0 0 0
          0 0 0 0 0 0
          0 0 0 0 0 0
          0 0 0 0 0 0
          0 0 0 0 0 0
          0 0 0 0 0 0
          0 0 0 0 0 0
          0 0 0 0
        </DataArray>
      </CellData>
      <Points>
        <DataArray type="Float64" Name="Points" NumberOfComponents="3" format="ascii" RangeMin="0" RangeMax="1.4142135624">
          0 0 0 0.1 0 0
          0.1 0.1 0 0 0.1 0
          0.05 0 0 0.1 0.05 0
          0.05 0.1 0 0 0.05 0
          0.05 0.05 0 0.2 0 0
          0.2 0.1 0 0.15 0 0
          0.2 0.05 0 0.15 0.1 0
          0.15 0.05 0 0.3 0 0
          0.3 0.1 0 0.25 0 0
          0.3 0.05 0 0.25 0.1 0
          0.25 0.05 0 0.4 0 0
          0.4 0.1 0 0.35 0 0
          0.4 0.05 0 0.35 0.1 0
          0.35 0.05 0 0.5 0 0
          0.5 0.1 0 0.45 0 0
          0.5 0.05 0 0.45 0.1 0
          0.45 0.05 0 0.6 0 0
          0.6 0.1 0 0.55 0 0
          0.6 0.05 0 0.55 0.1 0
          0.55 0.05 0 0.7 0 0
          0.7 0.1 0 0.65 0 0
          0.7 0.05 0 0.65 0.1 0
          0.65 0.05 0 0.8 0 0
          0.8 0.1 0 0.75 0 0
          0.8 0.05 0 0.75 0.1 0
          0.75 0.05 0 0.9 0 0
          0.9 0.1 0 0.85 0 0
          0.9 0.05 0 0.85 0.1 0
          0.85 0.05 0 1 0 0
          1 0.1 0 0.95 0 0
          1 0.05 0 0.95 0.1 0
          0.95 0.05 0 0.1 0.2 0
          0 0.2 0 0.1 0.15 0
          0.05 0.2 0 0 0.15 0
          0.05 0.15 0 0.2 0.2 0
          0.2 0.15 0 0.15 0.2 0
          0.15 0.15 0 0.3 0.2 0
          0.3 0.15 0 0.25 0.2 0
          0.25 0.15 0 0.4 0.2 0
          0.4 0.15 0 0.35 0.2 0
          0.35 0.15 0 0.5 0.2 0
          0.5 0.15 0 0.45 0.2 0
          0.45 0.15 0 0.6 0.2 0
          0.6 0.15 0 0.55 0.2 0
          0.55 0.15 0 0.7 0.2 0
          0.7 0.15 0 0.65 0.2 0
          0.65 0.15 0 0.8 0.2 0
          0.8 0.15 0 0.75 0.2 0
          0.75 0.15 0 0.9 0.2 0
          0.9 0.15 0 0.85 0.2 0
          0.85 0.15 0 1 0.2 0
          1 0.15 0 0.95 0.2 0
          0.95 0.15 0 0.1 0.3 0
          0 0.3 0 0.1 0.25 0
          0.05 0.3 0 0 0.25 0
          0.05 0.25 0 0.2 0.3 0
          0.2 0.25 0 0.15 0.3 0
          0.15 0.25 0 0.3 0.3 0
          0.3 0.25 0 0.25 0.3 0
          0.25 0.25 0 0.4 0.3 0
          0.4 0.25 0 0.35 0.3 0
          0.35 0.25 0 0.5 0.3 0
          0.5 0.25 0 0.45 0.3 0
          0.45 0.25 0 0.6 0.3 0
          0.6 0.25 0 0.55 0.3 0
          0.55 0.25 0 0.7 0.3 0
          0.7 0.25 0 0.65 0.3 0
          0.65 0.25 0 0.8 0.3 0
          0.8 0.25 0 0.75 0.3 0
          0.75 0.25 0 0.9 0.3 0
          0.9 0.25 0 0.85 0.3 0
          0.85 0.25 0 1 0.3 0
          1 0.25 0 0.95 0.3 0
          0.95 0.25 0 0.1 0.4 0
          0 0.4 0 0.1 0.35 0
          0.05 0.4 0 0 0.35 0
          0.05 0.35 0 0.2 0.4 0
          0.2 0.35 0 0.15 0.4 0
          0.15 0.35 0 0.3 0.4 0
          0.3 0.35 0 0.25 0.4 0
          0.25 0.35 0 0.4 0.4 0
          0.4 0.35 0 0.35 0.4 0
          0.35 0.35 0 0.5 0.4 0
          0.5 0.35 0 0.45 0.4 0
          0.45 0.35 0 0.6 0.4 0
          0.6 0.35 0 0.55 0.4 0
          0.55 0.35 0 0.7 0.4 0
          0.7 0.35 0 0.65 0.4 0
          0.65 0.35 0 0.8 0.4 0
          0.8 0.35 0 0.75 0.4 0
          0.75 0.35 0 0.9 0.4 0
          0.9 0.35 0 0.85 0.4 0
          0.85 0.35 0 1 0.4 0
          1 0.35 0 0.95 0.4 0
          0.95 0.35 0 0.1 0.5 0
          0 0.5 0 0.1 0.45 0
          0.05 0.5 0 0 0.45 0
          0.05 0.45 0 0.2 0.5 0
          0.2 0.45 0 0.15 0.5 0
          0.15 0.45 0 0.3 0.5 0
          0.3 0.45 0 0.25 0.5 0
          0.25 0.45 0 0.4 0.5 0
          0.4 0.45 0 0.35 0.5 0
          0.35 0.45 0 0.5 0.5 0
          0.5 0.45 0 0.45 0.5 0
          0.45 0.45 0 0.6 0.5 0
          0.6 0.45 0 0.55 0.5 0
          0.55 0.45 0 0.7 0.5 0
          0.7 0.45 0 0.65 0.5 0
          0.65 0.45 0 0.8 0.5 0
          0.8 0.45 0 0.75 0.5 0
          0.75 0.45 0 0.9 0.5 0
          0.9 0.45 0 0.85 0.5 0
          0.85 0.45 0 1 0.5 0
          1 0.45 0 0.95 0.5 0
          0.95 0.45 0 0.1 0.6 0
          0 0.6 0 0.1 0.55 0
          0.05 0.6 0 0 0.55 0
          0.05 0.55 0 0.2 0.6 0
          0.2 0.55 0 0.15 0.6 0
          0.15 0.55 0 0.3 0.6 0
          0.3 0.55 0 0.25 0.6 0
          0.25 0.55 0 0.4 0.6 0
          0.4 0.55 0 0.35 0.6 0
          0.35 0.55 0 0.5 0.6 0
          0.5 0.55 0 0.45 0.6 0
          0.45 0.55 0 0.6 0.6 0
          0.6 0.55 0 0.55 0.6 0
          0.55 0.55 0 0.7 0.6 0
          0.7 0.55 0 0.65 0.6 0
          0.65 0.55 0 0.8 0.6 0
          0.8 0.55 0 0.75 0.6 0
          0.75 0.55 0 0.9 0.6 0
          0.9 0.55 0 0.85 0.6 0
          0.85 0.55 0 1 0.6 0
          1 0.55 0 0.95 0.6 0
          0.95 0.55 0 0.1 0.7 0
          0 0.7 0 0.1 0.65 0
          0.05 0.7 0 0 0.65 0
          0.05 0.65 0 0.2 0.7 0
          0.2 0.65 0 0.15 0.7 0
          0.15 0.65 0 0.3 0.7 0
          0.3 0.65 0 0.25 0.7 0
          0.25 0.65 0 0.4 0.7 0
          0.4 0.65 0 0.35 0.7 0
          0.35 0.65 0 0.5 0.7 0
          0.5 0.65 0 0.45 0.7 0
          0.45 0.65 0 0.6 0.7 0
          0.6 0.65 0 0.55 0.7 0
          0.55 0.65 0 0.7 0.7 0
          0.7 0.65 0 0.65 0.7 0
          0.65 0.65 0 0.8 0.7 0
          0.8 0.65 0 0.75 0.7 0
          0.75 0.65 0 0.9 0.7 0
          0.9 0.65 0 0.85 0.7 0
          0.85 0.65 0 1 0.7 0
          1 0.65 0 0.95 0.7 0
          0.95 0.65 0 0.1 0.8 0
          0 0.8 0 0.1 0.75 0
          0.05 0.8 0 0 0.75 0
          0.05 0.75 0 0.2 0.8 0
          0.2 0.75 0 0.15 0.8 0
          0.15 0.75 0 0.3 0.8 0
          0.3 0.75 0 0.25 0.8 0
          0.25 0.75 0 0.4 0.8 0
          0.4 0.75 0 0.35 0.8 0
          0.35 0.75 0 0.5 0.8 0
          0.5 0.75 0 0.45 0.8 0
          0.45 0.75 0 0.6 0.8 0
          0.6 0.75 0 0.55 0.8 0
          0.55 0.75 0 0.7 0.8 0
          0.7 0.75 0 0.65 0.8 0
          0.65 0.75 0 0.8 0.8 0
          0.8 0.75 0 0.75 0.8 0
          0.75 0.75 0 0.9 0.8 0
          0.9 0.75 0 0.85 0.8 0
          0.85 0.75 0 1 0.8 0
          1 0.75 0 0.95 0.8 0
          0.95 0.75 0 0.1 0.9 0
          0 0.9 0 0.1 0.85 0
          0.05 0.9 0 0 0.85 0
          0.05 0.85 0 0.2 0.9 0