<?xml version="1.0"?>
<VTKFile type="UnstructuredGrid" version="0.1" byte_order="LittleEndian" compressor="vtkZLibDataCompressor">
  <UnstructuredGrid>
    <Piece NumberOfPoints="441" NumberOfCells="100">
      <PointData>
        <DataArray type="Float64" Name="u" format="ascii" RangeMin="-0.1955500045" RangeMax="1">
          2.0630835938e-16 -1.5586234948e-16 -0.004948624105 2.6244159024e-17 6.4220176145e-16 -0.0019089492325
          -0.0012134997527 9.0823953179e-16 -0.00019361387357 -2.8723390022e-15 -0.01864353334 -4.9927892929e-15
          -0.009201172369 -0.010873241022 -0.0048240756661 -6.8376995898e-15 -0.035746037078 -1.9475051369e-14
          -0.018980813468 -0.027229254409 -0.014088540669 -9.9910792077e-15 -0.049259224372 -3.4137304e-14
          -0.026797072065 -0.043358522371 -0.023407202089 -1.1175141423e-14 -0.054318107863 -4.305555216e-14
          -0.029734589003 -0.053080723966 -0.029060818237 -9.9860676503e-15 -0.049245083186 -4.3042388669e-14
          -0.026788376037 -0.053070980698 -0.029054453134 -6.8365763572e-15 -0.035742384584 -3.4120158447e-14
          -0.018979782939 -0.043345547896 -0.023399340347 -2.8783018013e-15 -0.018660786438 -1.9486636689e-14
          -0.0092136010347 -0.027237101037 -0.014095366784 -1.6037083573e-16 -0.0049637828498 -5.019390938e-15
          -0.0019188241525 -0.010894292881 -0.0048387363484 2.0644127969e-16 2.455348577e-17 6.3692473318e-16
          9.0461838877e-16 -0.0012196384583 -0.00019712551411 -0.010970711676 -1.4860193206e-16 -0.0080323621319
          -0.0029549747101 -3.6954557689e-16 -0.0021372529833 -0.03667172346 -0.027799187525 -0.022666092173
          -0.016857752638 -0.065769123072 -0.051131979812 -0.051518580831 -0.03960883718 -0.087850325319
          -0.069219739208 -0.078259792977 -0.061338255257 -0.095974027327 -0.075941567514 -0.093964034908
          -0.07428540432 -0.087794153676 -0.069192714352 -0.093930474951 -0.07426815051 -0.065713572058
          -0.051113929788 -0.078193862936 -0.061309470248 -0.036662069333 -0.027811638421 -0.051483622211
          -0.039606116482 -0.01098372756 -0.0080493417858 -0.022676226172 -0.016879124389 -1.5151222643e-16
          -3.7877360392e-16 -0.0029622296351 -0.0021447148522 -0.016842471721 -2.4855291802e-16 -0.013865389156
          -0.0046005598609 -7.6476061231e-16 -0.0037542325719 -0.054408803969 -0.045468329448 -0.034255779134
          -0.028404477728 -0.094606874114 -0.080170478683 -0.075198107973 -0.063295037717 -0.12381502038
          -0.10595556023 -0.11125630706 -0.094808808511 -0.13427490486 -0.11532500011 -0.13170625611
          -0.11301242015 -0.12361814626 -0.10584489509 -0.13159563289 -0.11294878019 -0.094355548239
          -0.080040923671 -0.11100628133 -0.094672151227 -0.054259355971 -0.04540836354 -0.07498234234
          -0.063193041701 -0.016813188061 -0.01386495247 -0.034177221734 -0.028384158964 -2.5316367852e-16
          -7.8099051073e-16 -0.0045989665329 -0.0037596861734 -0.023442538959 -4.5217438505e-16 -0.020018367813
          -0.0065576265378 -1.4395775751e-15 -0.0055576632732 -0.073345927509 -0.063686448249 -0.046922892471
          -0.040378525031 -0.12358675175 -0.1091874158 -0.09977463817 -0.087406666599 -0.15803671081
          -0.14139777522 -0.14344515969 -0.12763691234 -0.16987796869 -0.15273111951 -0.16702844649
          -0.14997187601 -0.1575586929 -0.14107744936 -0.1667671035 -0.14979466053 -0.12291483539
          -0.10875538751 -0.14281652947 -0.12722202246 -0.072856548037 -0.063396331779 -0.099148441223
          -0.087017346674 -0.02328824107 -0.019939176179 -0.046608629418 -0.04020484894 -4.5360933748e-16
          -1.4519108366e-15 -0.0065201183035 -0.0055417177372 -0.031361269799 -5.4304306901e-16 -0.027174595155
          -0.0087638006323 -1.7823674996e-15 -0.0074809753269 -0.09316654947 -0.0833369386 -0.061428676666
          -0.05403979898 -0.14882769764 -0.13721571759 -0.12326701699 -0.11198247184 -0.18309799858
          -0.17262202318 -0.16903261093 -0.15782012439 -0.19397344532 -0.18439525105 -0.19145255707
          -0.18160486651 -0.1822598593 -0.17196197176 -0.19100408815 -0.18124765163 -0.14755345665
          -0.13625194228 -0.16789490932 -0.15693900064 -0.092114129715 -0.082586600361 -0.12200976127
          -0.1110576166 -0.03096862158 -0.026916625878 -0.060687997557 -0.053532466913 -5.4101203124e-16
          -1.7875056439e-15 -0.0086597089599 -0.0074180895093 -0.041167947521 -1.6462204283e-15 -0.036139285796
          -0.012759094813 -4.8689162075e-15 -0.010886891426 -0.10972574648 -0.10225785771 -0.076231049088
          -0.068743636085 -0.15768337489 -0.15668746989 -0.13772385649 -0.1326284696 -0.17941698609
          -0.18671447738 -0.17129283687 -0.17472941478 -0.18473711075 -0.1955500045 -0.18366133411
          -0.19357719193 -0.17843547631 -0.1857475701 -0.18315417039 -0.19306774622 -0.15600260786
          -0.1551412435 -0.16988847834 -0.17338744318 -0.10809666298 -0.10089275076 -0.13592793858
          -0.13105049318 -0.040449129463 -0.035583866107 -0.074980798944 -0.067745704269 -1.6112356418e-15
          -4.7886038093e-15 -0.0125330148 -0.010719241566 -0.052211006213 -1.2613197423e-15 -0.046328052984
          -0.015825451433 -4.0821239195e-15 -0.013087464687 -0.1106778245 -0.11411297774 -0.089025961311
          -0.084318437995 -0.12091525467 -0.14776912284 -0.12059839964 -0.13533582434 -0.11010127261
          -0.15613430252 -0.11630796961 -0.15410682588 -0.10364745866 -0.15622638555 -0.1053391888
          -0.15639859609 -0.1097281359 -0.1553346657 -0.10517343882 -0.15599809504 -0.11989711025
          -0.14622457297 -0.11563627426 -0.15289992776 -0.10915784638 -0.11237304986 -0.11922258442
          -0.13355537986 -0.051294431223 -0.045473815888 -0.087607775289 -0.082876759483 -1.2172060031e-15
          -3.9414771771e-15 -0.015525135485 -0.012830564098 -0.060837560061 -1.1859734264e-14 -0.058956003391
          -0.032420968737 -2.9871059194e-14 -0.025689248089 -0.052706981715 -0.09327826564 -0.07127631351
          -0.085148401785 0.021891538186 -0.068917365371 -0.018044501269 -0.086913191234 0.080802012654
          -0.033659732507 0.056120750528 -0.049320768644 0.10120028946 -0.020085993092 0.096371601754
          -0.023399498409 0.079717571041 -0.033965945826 0.095777689424 -0.023598468917 0.02047331553
          -0.068936412661 0.054741370027 -0.049568092247 -0.053153757846 -0.092486374783 -0.019114220294
          -0.086512665202 -0.060408956906 -0.058126024723 -0.07102934823 -0.084110991525 -1.1729435019e-14
          -2.9439738938e-14 -0.032125680556 -0.025330097099 0.014065405033 -4.8914075966e-14 -0.046991767854
          -0.01933466712 -3.8077662186e-14 -0.022204582993 0.21402678792 0.030740704604 0.092799811166
          -0.040204504437 0.37569570947 0.16678784698 0.31553326598 0.11023082255 0.44920786765
          0.24023808586 0.41830062697 0.20910366221 0.47321305182 0.26556662543 0.46812203644
          0.25989339877 0.44747321043 0.23854444759 0.4672772782 0.25903529496 0.37252223793
          0.16404831789 0.41574643108 0.20673905463 0.21020159292 0.028436328082 0.31185388105
          0.10747264097 0.01251958979 -0.047384016735 0.089734371267 -0.041518013047 -4.8473082403e-14
          -3.6971496702e-14 -0.01878962498 -0.022008182492 1 0.5 0.24972981139
          1 -8.3790354978e-14 0.01784307818 1 0.54387560362 1
          0.45929179369 1 0.65375492436 1 0.60655789784 1
          0.70687383911 1 0.68844658848 1 0.72064266012 1
          0.71757373755 1 0.70589603447 1 0.71705641086 1
          0.65164407089 1 0.68694075381 1 0.54096189904 1
          0.60387496382 1 0.24688770196 1 0.45601587629 0.5
          -8.4012776107e-14 1 0.016090024501
        </DataArray>
        <DataArray type="Float64" Name="v" format="ascii" RangeMin="-0.35941433782" RangeMax="0.36240703858">
          -2.0650224549e-16 -9.8971928005e-19 0.0048713616923 9.6467169388e-17 -8.7952151894e-16 0.0011960090317
          0.0018922468812 -6.5093088418e-16 0.00019778946139 1.7993990797e-16 0.0090099386699 5.2388339495e-16
          0.0024333886063 0.0074246456832 0.0019898928276 2.0144548622e-16 0.0089917284607 8.203153956e-16
          0.0024776068663 0.009526949354 0.0026187662014 1.189294668e-16 0.0054311873178 6.8261792944e-16
          0.0014996978686 0.007567182828 0.0020997981155 -4.6601896491e-19 -6.7500349781e-06 2.4832577766e-16
          -1.6916653505e-06 0.0028318009995 0.00078502126102 -1.1913847281e-16 -0.0054340455284 -2.5104649455e-16
          -0.0014998096542 -0.0028422988739 -0.0007875567287 -2.0058430964e-16 -0.0089789492984 -6.810696623e-16
          -0.002473073386 -0.007560937306 -0.002097127493 -1.7941237503e-16 -0.0090026532451 -8.1681293171e-16
          -0.0024308852242 -0.0095136191158 -0.0026140900041 8.9275626564e-20 -0.0048831587446 -5.2507190035e-16
          -0.0011995630411 -0.007427885985 -0.001990855317 2.0684557202e-16 -1.0201571466e-16 8.7721863079e-16
          6.4599821419e-16 -0.0019041511204 -0.00020079377212 0.01986491677 2.9028525046e-15 0.01101147126
          0.0099668728349 4.9463600414e-15 0.0049729217296 0.032185219192 0.019030074268 0.027599690739
          0.01596310427 0.031003700556 0.018682903987 0.033257567104 0.019902036493 0.018501526898
          0.011231477405 0.025871640002 0.015663386849 -2.6977055145e-05 -1.2760707356e-05 0.0096164030476
          0.0058490858147 -0.018519191114 -0.01123590562 -0.0096602484783 -0.0058686743174 -0.030962932226
          -0.018655517477 -0.02585691466 -0.015649592993 -0.032150192227 -0.019011794562 -0.033209008158
          -0.019872777761 -0.019890975468 -0.011031463794 -0.027595352425 -0.015965087836 -2.9236784724e-15
          -4.9937194245e-15 -0.010001527138 -0.0049948780092 0.045123064234 8.3858891432e-15 0.03116659085
          0.024487415348 2.1960516254e-14 0.016387705619 0.067682093542 0.048349673961 0.059830202447
          0.04214676623 0.062901351571 0.045762632212 0.068484848877 0.049434784889 0.036870673464
          0.027086548743 0.051933486913 0.037998450648 -9.6368642645e-05 -4.9954276589e-05 0.019063742595
          0.014046773695 -0.036969186858 -0.027127557418 -0.019230882777 -0.01413052253 -0.062824437387
          -0.045701993299 -0.051941280047 -0.03798503959 -0.067557128038 -0.048280473867 -0.068358839362
          -0.049353219548 -0.045120727621 -0.031187505207 -0.059756940687 -0.042119651102 -8.4214002112e-15
          -2.2072735446e-14 -0.024528816042 -0.016429847894 0.081224419337 1.6331262567e-14 0.061626519367
          0.045598530701 4.8833326391e-14 0.034073804031 0.11544966591 0.090007843488 0.1046043216
          0.080519013081 0.10347704407 0.082198896598 0.11451035892 0.090194566537 0.059273800249
          0.047678911742 0.084332086949 0.067459168213 -0.0002817552584 -0.00016727110072 0.030410313207
          0.024567123834 -0.059621880187 -0.047868666884 -0.030916314825 -0.02486276717 -0.10337448635
          -0.082101999597 -0.084459203073 -0.067504834391 -0.11509429811 -0.089789425791 -0.11423236646
          -0.090000952394 -0.081044721223 -0.061564655227 -0.10429328963 -0.080356752738 -1.6356128254e-14
          -4.8960347218e-14 -0.045563524057 -0.034094048285 0.12899860118 2.7694906243e-14 0.10357696878
          0.074573534354 8.6398509567e-14 0.058807414899 0.17431636251 0.14357564573 0.16187825604
          0.13166980534 0.14925367954 0.12610765092 0.16881197037 0.14088476695 0.082847166245
          0.071213657579 0.1195034079 0.10195808939 -0.00064378045707 -0.00043775975077 0.042050786282
          0.036356698578 -0.083730693575 -0.071785470486 -0.043232425987 -0.037151747577 -0.14919707065
          -0.12601112776 -0.11994611958 -0.10220948463 -0.17352401011 -0.14302939345 -0.16830836579
          -0.14049923072 -0.12835721658 -0.1032108448 -0.16104472497 -0.13113944829 -2.7629461225e-14
          -8.6359390243e-14 -0.074270440027 -0.05867457862 0.19119885068 4.3120674744e-14 0.15755650216
          0.11399141019 1.4125034085e-13 0.092509650098 0.23805485128 0.20635902005 0.23046955132
          0.19470068242 0.19053325669 0.17142109511 0.22233288669 0.19667706014 0.10092090072
          0.093219808749 0.14864113084 0.13567788594 -0.0011434819042 -0.00089063387131 0.050435476727
          0.046984843234 -0.10262704862 -0.094497137718 -0.052572875897 -0.048635141084 -0.19072844011
          -0.1714588515 -0.14967211689 -0.13638691053 -0.23667424276 -0.20528144317 -0.22166514703
          -0.19607163119 -0.18962006302 -0.1565267368 -0.22873940171 -0.1934713733 -4.2811576315e-14
          -1.4056268625e-13 -0.11307172583 -0.091961846603 0.26071351402 6.6799359199e-14 0.22658280039
          0.16583693802 2.123097756e-13 0.13733607168 0.28883865187 0.26662233646 0.29643582524
          0.2655478089 0.20650669175 0.2037345603 0.25438323373 0.24292503436 0.10216023889
          0.10451677157 0.15472496387 0.15608821175 -0.0015102292093 -0.0013857231881 0.050087137051
          0.051736237662 -0.10463472404 -0.1066812319 -0.052972822769 -0.054352946471 -0.20727654241
          -0.20420269037 -0.15649008284 -0.15751834483 -0.28716015934 -0.26502657712 -0.25393573234
          -0.24231450741 -0.25800663743 -0.22442385336 -0.29388262502 -0.26335396132 -6.6051955828e-14
          -2.1031351885e-13 -0.16399102459 -0.13599122379 0.34303850368 1.0521241341e-13 0.2966355036
          0.24587667491 3.4142416481e-13 0.19834068536 0.27793858177 0.29786083578 0.33492995753
          0.32085206488 0.16754267564 0.19555373279 0.21999955392 0.25026086228 0.075297258724
          0.09282577639 0.11926534589 0.14295284489 -0.0013035320477 -0.0015129313827 0.035812093885
          0.04495954493 -0.077662547228 -0.095447623354 -0.038359103265 -0.04789055104 -0.16895967834
          -0.19671776633 -0.12128890096 -0.14499586516 -0.27697353386 -0.29642405772 -0.22043527867
          -0.25023390653 -0.33929445452 -0.29335811442 -0.33228320982 -0.31811983309 -1.0380900543e-13
          -3.3730383954e-13 -0.24288016607 -0.19594847837 0.2595099663 2.4917397143e-13 0.36240703858
          0.32399389924 5.2451641107e-13 0.2808125777 0.14142393507 0.22412414564 0.1822522913
          0.30704172327 0.067746163165 0.12448665929 0.10255817402 0.1676245341 0.028148622427
          0.052205200448 0.044402592526 0.08559649524 -0.00050482016458 -0.00092459810827 0.013602929079
          0.024449435936 -0.02916165416 -0.053953867849 -0.014619195367 -0.026265422483 -0.068773395284
          -0.12588490948 -0.045427931845 -0.087260852979 -0.14176282007 -0.22391592324 -0.10336859388
          -0.16839333843 -0.25814964427 -0.35941433782 -0.18217357262 -0.30550675514 -2.4713923627e-13
          -5.177799045e-13 -0.32103352196 -0.27763156377 2.5952579339e-14 1.2989754612e-13 0.094304083606
          6.4614206777e-13 1.1754870167e-12 0.31177705622 1.4966373247e-14 0.058163408843 -9.3677094173e-15
          0.042397437379 -8.7235234475e-16 0.017579852167 4.0229067958e-14 0.041152936082 1.3639627414e-15
          0.0090370926986 -3.0768822141e-15 0.010228728833 2.6893250796e-17 -0.00011763095669 4.2770066473e-15
          0.0050447254711 -1.3291942862e-15 -0.0092957197314 -4.1412219866e-15 -0.0053086007509 8.8932774073e-16
          -0.017923283146 3.3475404405e-15 -0.010458788532 -1.4755362907e-14 -0.058171573528 -4.0218056459e-14
          -0.041524771915 -2.6745140117e-14 -0.094747984649 9.4463478881e-15 -0.042525587684 -1.2836383357e-13
          -1.1660159874e-12 -6.4280034227e-13 -0.3100535695
        </DataArray>
        <DataArray type="Float64" Name="p" format="ascii" RangeMin="-83.704847014" RangeMax="82.981750627">
          -0.32089345103 -0.40891052793 -0.32286548394 -0.23145248835 -0.36490198948 -0.36588800593
          -0.27715898614 -0.27617296969 -0.32103048781 -0.54234907877 -0.38577245854 -0.47562980335
          -0.46406076866 -0.35431897124 -0.41497438729 -0.50006322509 -0.34696079126 -0.52120615193
          -0.42351200818 -0.3663666249 -0.44378638842 -0.2896030469 -0.1961309086 -0.39483313599
          -0.24286697775 -0.27154584993 -0.33318949296 0.02242872137 0.022399942615 -0.13358716276
          0.022414331993 -0.086865482991 -0.11022632288 0.33405614109 0.24062469915 0.17824243123
          0.28734042012 0.13151232088 0.15487737606 0.54393046524 0.39100081506 0.43899330316
          0.46746564015 0.31581275711 0.37740303014 0.58642609682 0.42992423491 0.56517828103
          0.50817516586 0.41046252499 0.48782040301 0.45359751007 0.36750364496 0.52001180344
          0.41055057751 0.39871393993 0.45936287169 0.3655541824 0.27600555742 0.40957584623
          0.32077986991 0.32175460119 0.36566522371 -0.26809257629 -0.067035028401 -0.29547903012
          -0.16756380235 -0.14924375838 -0.22236139425 -0.35366811571 -0.36972028713 -0.310880346
          -0.33259965862 -0.3169673088 -0.33196405003 -0.33531771226 -0.35084216858 -0.17640547285
          -0.18626819072 -0.24668639083 -0.25911612038 0.023284852722 0.022842397669 -0.076560310062
          -0.081712896526 0.22233260166 0.23147865041 0.12280872719 0.12716052404 0.36177092279
          0.37638586893 0.29205176223 0.30393225967 0.39829974599 0.41411199045 0.38003533439
          0.39524892969 0.31363279847 0.34056822171 0.35596627223 0.37734010608 0.11261811372
          0.19431183557 0.2131254561 0.26744002864 -0.32741993082 -0.017644397344 -0.29775625355
          -0.17253216408 -0.042339712873 -0.17004798321 -0.4439562066 -0.39881216116 -0.38568806871
          -0.34828420736 -0.39317606382 -0.35507168631 -0.41856613521 -0.37694192374 -0.21577354199
          -0.19608950742 -0.30447480291 -0.27558059687 0.026429445294 0.024857149008 -0.09467204835
          -0.085616179206 0.26714828061 0.24474044113 0.14678886295 0.13479879507 0.44159638601
          0.4016836544 0.35437233331 0.32321204777 0.49090286079 0.44460130339 0.4662496234
          0.42314247889 0.3755578386 0.34459531853 0.43323034969 0.39459831096 0.066998805417
          0.08980845957 0.22127832201 0.21720188905 -0.56956551782 -0.16253558164 -0.44849272432
          -0.36605054973 -0.090089989494 -0.26929135691 -0.70913854381 -0.57654737521 -0.63935203082
          -0.51252004976 -0.59340719169 -0.49329162775 -0.65127286775 -0.53491950148 -0.31828640081
          -0.2670299714 -0.45584679625 -0.38016079958 0.034121885604 0.030275665449 -0.1420822576
          -0.11837715298 0.38329134407 0.32521981234 0.20870661483 0.17774773889 0.65121718822
          0.54640678712 0.51725426614 0.43581329973 0.76168536206 0.62629411143 0.70645127514
          0.58635044927 0.62307182985 0.49931483422 0.69237859595 0.56280447282 0.21907559626
          0.14303720084 0.42107371305 0.32117601753 -1.1435122586 -0.55016388628 -0.85653888822
          -0.84683807245 -0.35634973396 -0.60644431109 -1.2080421991 -0.95859037147 -1.1757772289
          -0.90756462985 -0.95356723663 -0.77348721416 -1.0808047179 -0.86603879281 -0.49009939682
          -0.40419289881 -0.72183331673 -0.58884005649 0.049337562806 0.041729724205 -0.22038091701
          -0.1812315873 0.58223812457 0.48276473432 0.31578784369 0.26224722926 1.0302980941
          0.84075764117 0.80626810935 0.66176118775 1.2706875377 1.0161864499 1.1504928159
          0.92847204552 1.2029362617 0.91300404579 1.2368118997 0.96459524783 0.6179040735
          0.41848983488 0.91042016762 0.66574694034 -2.0982799819 -1.5507060906 -1.6208961203
          -1.8244930363 -1.0504349884 -1.3356655544 -2.088914179 -1.6484781891 -2.0935970805
          -1.6346871547 -1.4885193501 -1.2210432934 -1.7887167646 -1.4347607412 -0.73410228853
          -0.61210084267 -1.1113108193 -0.91657206803 0.073368710907 0.061353136857 -0.33036678881
          -0.27537385291 0.86985914566 0.72604863512 0.47161392828 0.39370088599 1.5956371986
          1.3129676464 1.2327481722 1.0195081408 2.1651537445 1.7179206411 1.8803954715
          1.5154441437 2.1635357157 1.6832359887 2.1643447301 1.7005783149 1.6245782564
          1.121241165 1.894056986 1.4022385768 -4.2326025576 -3.0403210554 -3.1654412698
          -3.6364618065 -2.295513573 -2.7304774214 -3.3114298187 -2.7001719989 -3.7720161882
          -2.9328066343 -2.2159870805 -1.8522532153 -2.7637084496 -2.2762126071 -1.001911026
          -0.86800665724 -1.6089490532 -1.3601299363 0.10080732851 0.08708801971 -0.45055184872
          -0.39045931877 1.1877999516 1.0288295486 0.64430364007 0.55795878418 2.3599705782
          1.9778038884 1.7738852649 1.5033167185 3.4002099987 2.7826818716 2.8800902885
          2.38024288 4.2824044494 3.2229700825 3.841307224 3.002825977 3.1070304035
          2.36580433 3.6947174265 2.7943872062 -6.7841837843 -7.5944088586 -5.5083931709
          -7.1892963214 -5.317364957 -5.412879064 -5.3250368303 -4.3182333245 -6.0546103073
          -4.9133132477 -2.7865620253 -2.5012745529 -4.0557994278 -3.4097539387 -1.2299251823
          -1.1159181041 -2.0082436038 -1.8085963285 0.11502831148 0.10791782 -0.55744843542
          -0.50400014207 1.4443656075 1.3160827796 0.77969695949 0.71200029978 2.9485295739
          2.6542500761 2.1964475907 1.9851664278 5.4115996056 4.4059048021 4.1800645897
          3.5300774391 6.8066992175 5.5445518334 6.1091494115 4.9752283178 7.6028224676
          5.3549264356 7.2047608425 5.4497391345 -16.233545976 -15.631416446 -11.50886488
          -15.932481211 -11.612912652 -11.560888766 -5.2333021256 -5.279169478 -10.733424051
          -8.394017179 -3.1718277394 -2.9791948824 -4.2025649325 -4.1291821802 -1.0511800244
          -1.1405526033 -2.1115038819 -2.0598737429 0.10574950857 0.11038891003 -0.4727152579
          -0.51508184666 1.2386591863 1.3415123969 0.67220434741 0.72595065345 3.3142383232
          3.1313839485 2.2764487547 2.2364481727 5.2712379148 5.3414187602 4.292738119
          4.2364013543 16.141893841 11.474296529 10.706565878 8.4078576447 15.480583092
          11.54170278 15.811238466 11.507999655 -3.9006447959 -83.704847014 -10.067095386
          -43.802745905 -49.66813173 -29.867613558 -5.9900648396 -5.6116834826 -4.9453548178
          -7.8393894342 -1.1010668075 -2.1364472734 -3.5455658235 -3.874065378 -0.81302368143
          -0.9321018529 -0.95704524445 -1.5342745632 0.085562314586 0.095655911579 -0.36373068342
          -0.41822297066 0.97682960971 1.107744398 0.53119596215 0.60170015478 1.1867871347
          2.2505127289 1.0818083722 1.6791285635 5.9945384229 5.6328881688 3.5906627788
          3.9417004489 3.7734733388 9.95768359 4.8840058809 7.7952858794 82.981750627
          49.231166859 43.377611983 29.594425225
        </DataArray>
      </PointData>
      <CellData>
        <DataArray type="Int32" Name="libmesh_elem_id" format="ascii" RangeMin="0" RangeMax="99">
          0 1 2 3 4 5
          6 7 8 9 10 11
          12 13 14 15 16 17
          18 19 20 21 22 23
          24 25 26 27 28 29
          30 31 32 33 34 35
          36 37 38 39 40 41
          42 43 44 45 46 47
          48 49 50 51 52 53
          54 55 56 57 58 59
          60 61 62 63 64 65
          66 67 68 69 70 71
          72 73 74 75 76 77
          78 79 80 81 82 83
          84 85 86 87 88 89
          90 91 92 93 94 95
          96 97 98 99
        </DataArray>
        <DataArray type="Int32" Name="subdomain_id" format="ascii" RangeMin="0" RangeMax="0">
          0 0 0 0 0 0
          0 0 0 0 0 0
          0 0 0 0 0 0
          0 0 0 0 0 0
          0 0 0 0 0 0
          0 0 0 0 0 0
          0 0 0 0 0 0
          0 0 0 0 0 0
          0 0 0 0 0 0
          0 0 0 0 0 0
          0 0 0 0 0 0
          0 0 0 0 0 0
          0 0 0 0 0 0
          0 0 0 0 0 0
          0 0 0 0 0 0
          0 0 0 0 0 0
          0 0 0 0
        </DataArray>
        <DataArray type="Int32" Name="processor_id" format="ascii" RangeMin="0" RangeMax="0">
          0 0 0 0 0 0
          0 0 0 0 0 0
          0 0 0 0 0 0
          0 0 0 0 0 0
          0 0 0 0 0 0
          0 0 0 0 0 0
          0 0 0 0 0 0
          0 0 0 0 0 0
          0 0 0 0 0 0
          0 0 0 0 0 0
          0 0 0 0 0 0
          0 0 0 0 0 0
          0 0 0 0 0 0
          0 0 0 0 0 0
          0 0 0 0 0 0
          0 0 0 0 0 0
          0 0 0 0
        </DataArray>
      </CellData>
      <Points>
        <DataArray type="Float64" Name="Points" NumberOfComponents="3" format="ascii" RangeMin="0" RangeMax="1.4142135624">
          0 0 0 0.1 0 0
          0.1 0.1 0 0 0.1 0
          0.05 0 0 0.1 0.05 0
          0.05 0.1 0 0 0.05 0
          0.05 0.05 0 0.2 0 0
          0.2 0.1 0 0.15 0 0
          0.2 0.05 0 0.15 0.1 0
          0.15 0.05 0 0.3 0 0
          0.3 0.1 0 0.25 0 0
          0.3 0.05 0 0.25 0.1 0
          0.25 0.05 0 0.4 0 0
          0.4 0.1 0 0.35 0 0
          0.4 0.05 0 0.35 0.1 0
          0.35 0.05 0 0.5 0 0
          0.5 0.1 0 0.45 0 0
          0.5 0.05 0 0.45 0.1 0
          0.45 0.05 0 0.6 0 0
          0.6 0.1 0 0.55 0 0
          0.6 0.05 0 0.55 0.1 0
          0.55 0.05 0 0.7 0 0
          0.7 0.1 0 0.65 0 0
          0.7 0.05 0 0.65 0.1 0
          0.65 0.05 0 0.8 0 0
          0.8 0.1 0 0.75 0 0
          0.8 0.05 0 0.75 0.1 0
          0.75 0.05 0 0.9 0 0
          0.9 0.1 0 0.85 0 0
          0.9 0.05 0 0.85 0.1 0
          0.85 0.05 0 1 0 0
          1 0.1 0 0.95 0 0
          1 0.05 0 0.95 0.1 0
          0.95 0.05 0 0.1 0.2 0
          0 0.2 0 0.1 0.15 0
          0.05 0.2 0 0 0.15 0
          0.05 0.15 0 0.2 0.2 0
          0.2 0.15 0 0.15 0.2 0
          0.15 0.15 0 0.3 0.2 0
          0.3 0.15 0 0.25 0.2 0
          0.25 0.15 0 0.4 0.2 0
          0.4 0.15 0 0.35 0.2 0
          0.35 0.15 0 0.5 0.2 0
          0.5 0.15 0 0.45 0.2 0
          0.45 0.15 0 0.6 0.2 0
          0.6 0.15 0 0.55 0.2 0
          0.55 0.15 0 0.7 0.2 0
          0.7 0.15 0 0.65 0.2 0
          0.65 0.15 0 0.8 0.2 0
          0.8 0.15 0 0.75 0.2 0
          0.75 0.15 0 0.9 0.2 0
          0.9 0.15 0 0.85 0.2 0
          0.85 0.15 0 1 0.2 0
          1 0.15 0 0.95 0.2 0
          0.95 0.15 0 0.1 0.3 0
          0 0.3 0 0.1 0.25 0
          0.05 0.3 0 0 0.25 0
          0.05 0.25 0 0.2 0.3 0
          0.2 0.25 0 0.15 0.3 0
          0.15 0.25 0 0.3 0.3 0
          0.3 0.25 0 0.25 0.3 0
          0.25 0.25 0 0.4 0.3 0
          0.4 0.25 0 0.35 0.3 0
          0.35 0.25 0 0.5 0.3 0
          0.5 0.25 0 0.45 0.3 0
          0.45 0.25 0 0.6 0.3 0
          0.6 0.25 0 0.55 0.3 0
          0.55 0.25 0 0.7 0.3 0
          0.7 0.25 0 0.65 0.3 0
          0.65 0.25 0 0.8 0.3 0
          0.8 0.25 0 0.75 0.3 0
          0.75 0.25 0 0.9 0.3 0
          0.9 0.25 0 0.85 0.3 0
          0.85 0.25 0 1 0.3 0
          1 0.25 0 0.95 0.3 0
          0.95 0.25 0 0.1 0.4 0
          0 0.4 0 0.1 0.35 0
          0.05 0.4 0 0 0.35 0
          0.05 0.35 0 0.2 0.4 0
          0.2 0.35 0 0.15 0.4 0
          0.15 0.35 0 0.3 0.4 0
          0.3 0.35 0 0.25 0.4 0
          0.25 0.35 0 0.4 0.4 0
          0.4 0.35 0 0.35 0.4 0
          0.35 0.35 0 0.5 0.4 0
          0.5 0.35 0 0.45 0.4 0
          0.45 0.35 0 0.6 0.4 0
          0.6 0.35 0 0.55 0.4 0
          0.55 0.35 0 0.7 0.4 0
          0.7 0.35 0 0.65 0.4 0
          0.65 0.35 0 0.8 0.4 0
          0.8 0.35 0 0.75 0.4 0
          0.75 0.35 0 0.9 0.4 0
          0.9 0.35 0 0.85 0.4 0
          0.85 0.35 0 1 0.4 0
          1 0.35 0 0.95 0.4 0
          0.95 0.35 0 0.1 0.5 0
          0 0.5 0 0.1 0.45 0
          0.05 0.5 0 0 0.45 0
          0.05 0.45 0 0.2 0.5 0
          0.2 0.45 0 0.15 0.5 0
          0.15 0.45 0 0.3 0.5 0
          0.3 0.45 0 0.25 0.5 0
          0.25 0.45 0 0.4 0.5 0
          0.4 0.45 0 0.35 0.5 0
          0.35 0.45 0 0.5 0.5 0
          0.5 0.45 0 0.45 0.5 0
          0.45 0.45 0 0.6 0.5 0
          0.6 0.45 0 0.55 0.5 0
          0.55 0.45 0 0.7 0.5 0
          0.7 0.45 0 0.65 0.5 0
          0.65 0.45 0 0.8 0.5 0
          0.8 0.45 0 0.75 0.5 0
          0.75 0.45 0 0.9 0.5 0
          0.9 0.45 0 0.85 0.5 0
          0.85 0.45 0 1 0.5 0
          1 0.45 0 0.95 0.5 0
          0.95 0.45 0 0.1 0.6 0
          0 0.6 0 0.1 0.55 0
          0.05 0.6 0 0 0.55 0
          0.05 0.55 0 0.2 0.6 0
          0.2 0.55 0 0.15 0.6 0
          0.15 0.55 0 0.3 0.6 0
          0.3 0.55 0 0.25 0.6 0
          0.25 0.55 0 0.4 0.6 0
          0.4 0.55 0 0.35 0.6 0
          0.35 0.55 0 0.5 0.6 0
          0.5 0.55 0 0.45 0.6 0
          0.45 0.55 0 0.6 0.6 0
          0.6 0.55 0 0.55 0.6 0
          0.55 0.55 0 0.7 0.6 0
          0.7 0.55 0 0.65 0.6 0
          0.65 0.55 0 0.8 0.6 0
          0.8 0.55 0 0.75 0.6 0
          0.75 0.55 0 0.9 0.6 0
          0.9 0.55 0 0.85 0.6 0
          0.85 0.55 0 1 0.6 0
          1 0.55 0 0.95 0.6 0
          0.95 0.55 0 0.1 0.7 0
          0 0.7 0 0.1 0.65 0
          0.05 0.7 0 0 0.65 0
          0.05 0.65 0 0.2 0.7 0
          0.2 0.65 0 0.15 0.7 0
          0.15 0.65 0 0.3 0.7 0
          0.3 0.65 0 0.25 0.7 0
          0.25 0.65 0 0.4 0.7 0
          0.4 0.65 0 0.35 0.7 0
          0.35 0.65 0 0.5 0.7 0
          0.5 0.65 0 0.45 0.7 0
          0.45 0.65 0 0.6 0.7 0
          0.6 0.65 0 0.55 0.7 0
          0.55 0.65 0 0.7 0.7 0
          0.7 0.65 0 0.65 0.7 0
          0.65 0.65 0 0.8 0.7 0
          0.8 0.65 0 0.75 0.7 0
          0.75 0.65 0 0.9 0.7 0
          0.9 0.65 0 0.85 0.7 0
          0.85 0.65 0 1 0.7 0
          1 0.65 0 0.95 0.7 0
          0.95 0.65 0 0.1 0.8 0
          0 0.8 0 0.1 0.75 0
          0.05 0.8 0 0 0.75 0
          0.05 0.75 0 0.2 0.8 0
          0.2 0.75 0 0.15 0.8 0
          0.15 0.75 0 0.3 0.8 0
          0.3 0.75 0 0.25 0.8 0
          0.25 0.75 0 0.4 0.8 0
          0.4 0.75 0 0.35 0.8 0
          0.35 0.75 0 0.5 0.8 0
          0.5 0.75 0 0.45 0.8 0
          0.45 0.75 0 0.6 0.8 0
          0.6 0.75 0 0.55 0.8 0
          0.55 0.75 0 0.7 0.8 0
          0.7 0.75 0 0.65 0.8 0
          0.65 0.75 0 0.8 0.8 0
          0.8 0.75 0 0.75 0.8 0
          0.75 0.75 0 0.9 0.8 0
          0.9 0.75 0 0.85 0.8 0
          0.85 0.75 0 1 0.8 0
          1 0.75 0 0.95 0.8 0
          0.95 0.75 0 0.1 0.9 0
          0 0.9 0 0.1 0.85 0
          0.05 0.9 0 0 0.85 0
          0.05 0.85 0 0.2 0.9 0