<?xml version="1.0"?>
<VTKFile type="UnstructuredGrid" version="0.1" byte_order="LittleEndian" compressor="vtkZLibDataCompressor">
  <UnstructuredGrid>
    <Piece NumberOfPoints="441" NumberOfCells="100">
      <PointData>
        <DataArray type="Float64" Name="u" format="ascii" RangeMin="-0.1955013024" RangeMax="1">
          2.0304728869e-16 -1.5953444317e-16 -0.004881678752 2.4404995944e-17 6.2479534952e-16 -0.0018897261662
          -0.0011986387117 8.8918635357e-16 -0.00019429845126 -2.8384377363e-15 -0.018359505953 -4.9523710776e-15
          -0.0090717150656 -0.010715928606 -0.0047638874152 -6.7375965066e-15 -0.035163248926 -1.9209372093e-14
          -0.018682846648 -0.026798405688 -0.013877281367 -9.8336328931e-15 -0.04842526992 -3.3614990044e-14
          -0.026354427017 -0.042636070707 -0.023028595371 -1.0995279991e-14 -0.053386756716 -4.2367878881e-14
          -0.029235506578 -0.052173880797 -0.028575186444 -9.8284941432e-15 -0.048410225865 -4.2354524993e-14
          -0.026345283012 -0.052163708214 -0.028568625422 -6.7361232118e-15 -0.035157856359 -3.35969588e-14
          -0.018680857734 -0.042621761369 -0.023020041696 -2.8439707535e-15 -0.018374888689 -1.9219257391e-14
          -0.0090830679986 -0.026804303927 -0.013882986589 -1.6386612892e-16 -0.0048959424038 -4.977639972e-15
          -0.0018991053727 -0.010735462565 -0.0047776746647 2.0315926081e-16 2.2765292736e-17 6.1965356005e-16
          8.8561067024e-16 -0.0012044779449 -0.00019767422606 -0.010808904332 -1.4697876013e-16 -0.0079143803669
          -0.002911919836 -3.6797569318e-16 -0.0021068751712 -0.036110226178 -0.027364693775 -0.022325225418
          -0.016601729967 -0.064726422526 -0.050294899857 -0.050715547084 -0.038974250496 -0.086422329654
          -0.068052565446 -0.077001691925 -0.060317151868 -0.094399259477 -0.074647458953 -0.092426606564
          -0.073023454382 -0.086365039043 -0.068024363384 -0.092392522562 -0.073005635332 -0.064668693224
          -0.05027464106 -0.076934127552 -0.06028665896 -0.036098088956 -0.027374761053 -0.050678109988
          -0.03896907191 -0.010820625646 -0.0079301802484 -0.022333240576 -0.016621133335 -1.4979412946e-16
          -3.7689535069e-16 -0.002918713245 -0.0021139271215 -0.016632821051 -2.4537191509e-16 -0.013671697185
          -0.0045429762604 -7.5429013968e-16 -0.0037014370694 -0.053716785634 -0.044817377023 -0.033824999874
          -0.028003010187 -0.09336856579 -0.078988563594 -0.074228351267 -0.062375633817 -0.12215474429
          -0.10435684516 -0.10978079681 -0.093393209588 -0.1324569482 -0.11356903221 -0.12992825492
          -0.11129642196 -0.12195830109 -0.10424558509 -0.12981795249 -0.11123254842 -0.09311733681
          -0.078857567606 -0.10953123216 -0.093255621208 -0.053566593315 -0.044755430519 -0.074012295766
          -0.06227184329 -0.016602812837 -0.013670087957 -0.033745462658 -0.027980862322 -2.4986315541e-16
          -7.7006826249e-16 -0.004541038565 -0.0037064308481 -0.023256488058 -4.4901857494e-16 -0.019810530215
          -0.0065059172982 -1.4257258765e-15 -0.0054999027755 -0.072745216878 -0.063009461123 -0.04654464611
          -0.039954315978 -0.12253191369 -0.10798871613 -0.098941254534 -0.086463338174 -0.15663976513
          -0.13980134901 -0.14219711172 -0.1262141183 -0.16835591003 -0.15098753828 -0.16553761903
          -0.14826537165 -0.15616549118 -0.1394829575 -0.16527835091 -0.14808927837 -0.12186539689
          -0.10755913847 -0.14157354414 -0.12580176024 -0.072259886314 -0.06272064957 -0.098320214695
          -0.086076110004 -0.023103496915 -0.019731446399 -0.046232983237 -0.03978115463 -4.5041194129e-16
          -1.4377077292e-15 -0.0064686861613 -0.0054838562589 -0.031275517597 -5.4138473427e-16 -0.027029533478
          -0.0087396036567 -1.7716188164e-15 -0.0074401576004 -0.092896658612 -0.082873703175 -0.061256431553
          -0.053746530232 -0.14836457851 -0.13640941564 -0.12289709284 -0.11134282926 -0.18249488972
          -0.17156067426 -0.16848972713 -0.15686937547 -0.19332200539 -0.18324219877 -0.19081244328
          -0.18047432717 -0.18166377856 -0.17090620138 -0.19036773413 -0.18012013822 -0.14710166114
          -0.13545420638 -0.16736190227 -0.15599594749 -0.09185453032 -0.082130597042 -0.12165152661
          -0.11042653887 -0.030887228849 -0.026774356426 -0.060523426257 -0.053244332292 -5.3947514001e-16
          -1.7768742557e-15 -0.0086367871712 -0.0073780094437 -0.041235857314 -1.6472895739e-15 -0.036126543214
          -0.012777677557 -4.8670481215e-15 -0.010882784143 -0.1099503158 -0.10222414176 -0.076370555895
          -0.068720006757 -0.15808851466 -0.15664006186 -0.13803969624 -0.13258654524 -0.17996520066
          -0.1866633965 -0.17177781649 -0.17467905941 -0.18534170695 -0.1955013024 -0.1842507788
          -0.19352690248 -0.17899054152 -0.18570409019 -0.18374720182 -0.19302148074 -0.15642016434
          -0.15510671864 -0.17038366535 -0.17334801647 -0.10833445199 -0.10087159332 -0.13625760189
          -0.13102231317 -0.040523494596 -0.035576850397 -0.075130939442 -0.067731785048 -1.612712951e-15
          -4.787856425e-15 -0.012553757667 -0.010716974716 -0.05242439436 -1.2655453464e-15 -0.046475144253
          -0.015885036734 -4.0934369409e-15 -0.013128576251 -0.11136872828 -0.11459019381 -0.089459788
          -0.084617697467 -0.12213987992 -0.14861674164 -0.12156104484 -0.13600148072 -0.11173669911
          -0.15726841875 -0.11776350335 -0.15511521782 -0.10543634322 -0.15746913314 -0.1070892191
          -0.15761329689 -0.11136411073 -0.1564732468 -0.10692372408 -0.15721510492 -0.12112508436
          -0.1470814361 -0.11709385053 -0.1539155553 -0.10985546757 -0.11286167207 -0.12019064634
          -0.13423210921 -0.051512378691 -0.04562707813 -0.088048077747 -0.083185768526 -1.2217644322e-15
          -3.9543266554e-15 -0.015586359475 -0.012873776916 -0.061101268242 -1.1864559753e-14 -0.059211979208
          -0.032493656359 -2.9891037004e-14 -0.025760825927 -0.053577600977 -0.094110250995 -0.071817741745
          -0.085669804666 0.020326427221 -0.070397410136 -0.019267032033 -0.088074549505 0.078697816491
          -0.035639571921 0.054252643614 -0.051081826682 0.098897003213 -0.02225111299 0.094117397293
          -0.025518394609 0.07762186001 -0.035941591083 0.093527852894 -0.02571516118 0.018920804153
          -0.07041182588 0.052884061573 -0.05132458227 -0.054015309261 -0.093317733185 -0.020325270569
          -0.087671353053 -0.060670286508 -0.058383497707 -0.071564805349 -0.084633085063 -1.1734212259e-14
          -2.9460596008e-14 -0.032197798192 -0.025402513645 0.013905583587 -4.8914384023e-14 -0.047223745729
          -0.019375467814 -3.8094546678e-14 -0.022268842132 0.21343547121 0.029951006391 0.092451441186
          -0.040687169981 0.37456984891 0.1653394138 0.31467420193 0.10910910884 0.44765706861
          0.23827247154 0.41693610667 0.20736462614 0.47150472504 0.26341012242 0.4664519071
          0.25778342402 0.44593135596 0.2365894892 0.4656114147 0.25693063926 0.37141240877
          0.16261724868 0.41439456189 0.20501433971 0.20962832088 0.02766302338 0.31101237841
          0.10636871469 0.012368051406 -0.047609791705 0.089400836718 -0.041988625201 -4.8472069663e-14
          -3.6985381137e-14 -0.018827011284 -0.022069961555 1 0.5 0.24966442521
          1 -8.3761884947e-14 0.01783527855 1 0.5435697973 1
          0.45912860172 1 0.6531309025 1 0.60609323096 1
          0.70599467839 1 0.68767887929 1 0.71966788913 1
          0.71662117498 1 0.70502077424 1 0.71610556256 1
          0.65102866491 1 0.68617886372 1 0.54066752893 1
          0.60342049925 1 0.24682876338 1 0.45586323631 0.5
          -8.3981134662e-14 1 0.016084874203
        </DataArray>
        <DataArray type="Float64" Name="v" format="ascii" RangeMin="-0.35908213333" RangeMax="0.36206101447">
          -2.0325458428e-16 6.7779132729e-19 0.0048049666026 1.0058845447e-16 -8.6069954269e-16 0.001181288426
          0.0018731701996 -6.3355083273e-16 0.00019843744293 1.7804623599e-16 0.0088616790978 5.2104880594e-16
          0.0023939293646 0.0073109501114 0.0019605201331 1.9862060027e-16 0.008829575716 8.096373375e-16
          0.0024331207794 0.0093617453911 0.0025736309246 1.1708774224e-16 0.005328006827 6.7229028609e-16
          0.0014712202155 0.0074264868408 0.0020607883015 -4.586985509e-19 -6.9280270055e-06 2.4432317041e-16
          -1.7434435031e-06 0.0027771424475 0.00076983850973 -1.1729966901e-16 -0.005331307487 -2.4701384154e-16
          -0.0014714731396 -0.002788026185 -0.00077248914869 -1.9778210289e-16 -0.0088171594212 -6.7080373395e-16
          -0.0024287205505 -0.0074207012913 -0.002058274908 -1.7752010661e-16 -0.0088541354463 -8.0620144688e-16
          -0.0023913718838 -0.0093485242823 -0.0025690171538 -1.543502813e-18 -0.004815990141 -5.2213530248e-16
          -0.0011846232894 -0.0073135657994 -0.0019613045946 2.0356947138e-16 -1.0594288031e-16 8.5840925099e-16
          6.2873369645e-16 -0.0018845218243 -0.00020132011316 0.019572424041 2.8686483393e-15 0.010853087241
          0.009832039171 4.9065191055e-15 0.0049116863057 0.031654509307 0.01871419124 0.027166854001
          0.015713355505 0.030451909236 0.018345941717 0.032685654775 0.019555973256 0.018155893356
          0.011018584927 0.025398230772 0.015372643629 -2.7691887685e-05 -1.3227448021e-05 0.009433948252
          0.005736485755 -0.018175123559 -0.011024058001 -0.0094792728098 -0.0057570484633 -0.030412298208
          -0.018319348379 -0.025385021028 -0.015359875099 -0.031618757583 -0.018695449649 -0.032637466788
          -0.019526980859 -0.019596069539 -0.010871564234 -0.027160680818 -0.01571416047 -2.8885912614e-15
          -4.9519269663e-15 -0.0098647761341 -0.0049325123783 0.044479595384 8.2752315708e-15 0.030709003328
          0.024153357215 2.167762708e-14 0.016160617099 0.066631259923 0.047568814779 0.05893879049
          0.041495652319 0.061851156951 0.044967900706 0.067379612403 0.048604422698 0.036223252662
          0.026592782701 0.051041375888 0.037320133679 -9.7286781051e-05 -5.0901454343e-05 0.018723334767
          0.013786611822 -0.036323996497 -0.026635892769 -0.018892427691 -0.013872323316 -0.061776302474
          -0.044908917833 -0.05105153206 -0.037308795942 -0.066505696566 -0.047498842553 -0.067254650286
          -0.048523524883 -0.044473472085 -0.030726701966 -0.058863022528 -0.041466228543 -8.3090209907e-15
          -2.1784660921e-14 -0.024191422824 -0.016200081806 0.08021169576 1.6136384612e-14 0.060792499815
          0.045049467724 4.8221030551e-14 0.033629338179 0.11387915904 0.08868639201 0.10324321418
          0.07938408552 0.1019471975 0.080897113337 0.11288317558 0.088816476073 0.058342476836
          0.046881827934 0.083042136347 0.066357819118 -0.00028154743299 -0.00016783003811 0.029922696726
          0.024148913902 -0.058691378128 -0.047073433623 -0.030428613131 -0.024445877911 -0.10184719462
          -0.080802597235 -0.083171109087 -0.066405814382 -0.11352490559 -0.088467965231 -0.11260754347
          -0.088624468863 -0.080029003407 -0.060726807774 -0.10293119239 -0.079219671194 -1.6159217725e-14
          -4.8340260416e-14 -0.045011099298 -0.033645913485 0.12773254795 2.7439904803e-14 0.1024140828
          0.073874336127 8.5487664113e-14 0.058169209063 0.17240099005 0.14179954371 0.16020034093
          0.13012037111 0.14741462371 0.1243922504 0.16684362021 0.13905351976 0.081737151648
          0.070174419544 0.11796009689 0.10051562481 -0.00064059999613 -0.00043618831597 0.041472081063
          0.035813787792 -0.082616894425 -0.070744967805 -0.042648028305 -0.036606186577 -0.14735972774
          -0.12429791562 -0.11840168657 -0.10076755024 -0.17161334056 -0.14125586725 -0.16634388184
          -0.13867097937 -0.12709282067 -0.10204667285 -0.15937061884 -0.12959089462 -2.7373557211e-14
          -8.5441896494e-14 -0.073570855118 -0.058033932211 0.18991469421 4.2859621572e-14 0.15624584914
          0.11327970865 1.4019878596e-13 0.091782092803 0.23612354595 0.20438738568 0.22877288037
          0.19296904367 0.18868820197 0.16953520755 0.22035332661 0.19465506842 0.099812437961
          0.092084825008 0.14709626839 0.13409760601 -0.0011363833915 -0.00088534010963 0.049859965742
          0.046394434135 -0.10150797827 -0.093354758294 -0.051984081794 -0.048034964647 -0.18888217598
          -0.16957317887 -0.14812083374 -0.13480275029 -0.23475151588 -0.20331636967 -0.21968970416
          -0.19405362433 -0.18834597692 -0.15522146911 -0.22705364519 -0.19174681398 -4.2552598642e-14
          -1.3951268437e-13 -0.11236602011 -0.091236582257 0.2596899834 6.6598830719e-14 0.22539530866
          0.16527806993 2.1136683308e-13 0.1366795835 0.28727457323 0.26482900309 0.29507008498
          0.26397475013 0.20500559241 0.20201971163 0.25277491479 0.24108549451 0.10125894249
          0.10348741822 0.15346772703 0.15465266518 -0.0015009046784 -0.0013770460001 0.049620820098
          0.051202832285 -0.10371789169 -0.10563811006 -0.052488622507 -0.053803091982 -0.20576992742
          -0.20248437282 -0.15522142687 -0.15607344446 -0.28560585063 -0.26324271477 -0.25232935712
          -0.24047813552 -0.25700066511 -0.22325065337 -0.29253264527 -0.26179470998 -6.5857315129e-14
          -2.0938617873e-13 -0.16344510068 -0.13534438595 0.34246372231 1.0511926822e-13 0.29582418815
          0.24558204452 3.4082655869e-13 0.1979063179 0.27701276156 0.29659559415 0.33413642534
          0.3197555535 0.16663983771 0.19433142074 0.21903748635 0.2489542834 0.074753111082
          0.092090814448 0.11850696254 0.14192789672 -0.0012964290243 -0.0015042542398 0.035530915173
          0.044579627498 -0.077105142401 -0.094697524382 -0.038063912956 -0.04749380282 -0.16804894617
          -0.19548869145 -0.12051910034 -0.14395906665 -0.27605239229 -0.2951672662 -0.21947079083
          -0.24892756229 -0.33873729984 -0.29256587722 -0.3315022851 -0.31703910626 -1.0372320786e-13
          -3.3673458741e-13 -0.24260022316 -0.19552922385 0.25934908718 2.4916701277e-13 0.36206101447
          0.3239281283 5.2434614003e-13 0.28065137602 0.14113409217 0.22353668236 0.18201139371
          0.30654665471 0.067456661239 0.1239068747 0.10225199331 0.16700901771 0.027972906827
          0.051854448101 0.044158075569 0.085108278292 -0.0005028241905 -0.00092024885402 0.013511812311
          0.024267906936 -0.028981679043 -0.053594482421 -0.014523976236 -0.026075182166 -0.068480223029
          -0.12529892018 -0.045179180461 -0.086764547204 -0.14147386591 -0.22333112282 -0.10306042387
          -0.16777540177 -0.25799605515 -0.35908213333 -0.18193702468 -0.3050204874 -2.4713609549e-13
          -5.1763440085e-13 -0.32097495707 -0.27748292712 2.5952669274e-14 1.2990437386e-13 0.094263179556
          6.4617057708e-13 1.1755058678e-12 0.31176935278 1.4961805923e-14 0.058083551085 -9.3823992353e-15
          0.042331087864 -8.7787532812e-16 0.017498489696 4.0207254743e-14 0.041067239813 1.3605517859e-15
          0.0089875712128 -3.0962765044e-15 0.010159456565 2.655731063e-17 -0.00011730582517 4.2690702818e-15
          0.005018815896 -1.3260963754e-15 -0.0092451063875 -4.1352870893e-15 -0.0052818514953 8.9475471646e-16
          -0.017840630548 3.3660150187e-15 -0.010388338076 -1.4750453019e-14 -0.058091241717 -4.019537092e-14
          -0.041437750335 -2.674621839e-14 -0.094709491686 9.4597812324e-15 -0.042460417653 -1.2837075293e-13
          -1.166040384e-12 -6.4283242819e-13 -0.31004832578
        </DataArray>
        <DataArray type="Float64" Name="p" format="ascii" RangeMin="-83.707025243" RangeMax="82.985255724">
          -0.32278008593 -0.40936456859 -0.32473618547 -0.23477389913 -0.36607232726 -0.36705037703
          -0.2797550423 -0.27877699253 -0.32291368478 -0.53945302676 -0.38567889855 -0.47440879767
          -0.46256596265 -0.35520754201 -0.41480816984 -0.49581355033 -0.345694377 -0.51763328854
          -0.42075396366 -0.36568663777 -0.44165996316 -0.28647953098 -0.19491169319 -0.39114654066
          -0.24069561209 -0.2703030351 -0.33072478788 0.022789207971 0.022754438973 -0.13184516151
          0.022771823472 -0.08607862711 -0.10896189431 0.33165940319 0.24012129761 0.17722430558
          0.2858903504 0.13143786829 0.15433108694 0.54041056278 0.39045835377 0.43603498299
          0.46543445827 0.31528982569 0.37566240434 0.58424210717 0.43054796592 0.56232633498
          0.50739503655 0.41050315984 0.48641474741 0.45475010636 0.37008091617 0.51949610677
          0.41241551126 0.40031444104 0.45990527391 0.36814718294 0.28004465065 0.41144864465
          0.32409591679 0.32506278341 0.36825571403 -0.27186587655 -0.073947945865 -0.29830103101
          -0.17290691121 -0.1543609225 -0.22633097676 -0.35529656683 -0.37048773269 -0.31358122169
          -0.33439438185 -0.31727647329 -0.33148542515 -0.33628652006 -0.35098657892 -0.17617102357
          -0.18554135838 -0.24672374843 -0.25851339176 0.023605564847 0.02318000191 -0.076282729364
          -0.081180678237 0.2227579506 0.2314396241 0.12318175772 0.12730981301 0.36277164756
          0.37661500066 0.29276479908 0.30402731238 0.40062661557 0.41558729074 0.38169913156
          0.3961011457 0.31808881121 0.34408486369 0.35935771339 0.37983607722 0.12022980656
          0.2001372286 0.21915930889 0.27211104615 -0.3323339198 -0.026521219845 -0.30209989817
          -0.17942756982 -0.050234582855 -0.17616724051 -0.44652660645 -0.40091158664 -0.38943026312
          -0.35150574241 -0.39432762628 -0.35580204979 -0.42042711636 -0.37835681821 -0.21610268175
          -0.19613685266 -0.30521515402 -0.27596945123 0.026649175192 0.025127370019 -0.094726753279
          -0.085504741322 0.26795736399 0.24535765729 0.14730326959 0.13524251366 0.44330989091
          0.40304076923 0.35563362745 0.32419921326 0.4940836775 0.44735514654 0.46869678421
          0.42519795789 0.38107111893 0.34957996507 0.43757739821 0.3984675558 0.076474950618
          0.098352378588 0.22877303477 0.22396617183 -0.5742138858 -0.17069967023 -0.4532739028
          -0.37245677801 -0.098610445037 -0.27594217392 -0.71182763978 -0.57917712311 -0.64302076279
          -0.51622551296 -0.59489629286 -0.49461195957 -0.65336196632 -0.53689454134 -0.31896248262
          -0.26753258219 -0.45692938774 -0.38107227088 0.034146705743 0.030397940468 -0.14240788844
          -0.11856732086 0.38409214896 0.32602475648 0.20911942735 0.17821134847 0.65299629868
          0.5481530948 0.51854422382 0.43708892564 0.7647949714 0.62943932445 0.70889563504
          0.58879620962 0.62815677197 0.50461394545 0.69647587168 0.56702663495 0.22764546155
          0.15206020608 0.42790111676 0.32833707577 -1.1465819492 -0.55486862812 -0.8603979175
          -0.85072528866 -0.36278414917 -0.61159103334 -1.2102246997 -0.96102616974 -1.1784033245
          -0.91071204362 -0.95510564681 -0.77500096983 -1.0826651733 -0.86801356979 -0.49103430998
          -0.4049983963 -0.72306997839 -0.58999968307 0.049099166702 0.041622936223 -0.22096757164
          -0.18168773004 0.58281545934 0.48345380415 0.31595731302 0.26253837019 1.0317512216
          0.84237376014 0.80728334047 0.66291378215 1.2730257492 1.0189103603 1.1523884854
          0.93064206022 1.2062447918 0.91720078189 1.2396352705 0.9680555711 0.62276939813
          0.42520742984 0.91450709497 0.67120410586 -2.0992302065 -1.5504091016 -1.6229060778
          -1.824819654 -1.0526388649 -1.3377724713 -2.0904108167 -1.6503177582 -2.0948205116
          -1.636611918 -1.4900620795 -1.2225838631 -1.7902364481 -1.4364508107 -0.73527551129
          -0.61315491063 -1.1126687954 -0.91786938689 0.072907194839 0.061003180771 -0.33118415823
          -0.27607586493 0.87027856256 0.72654701095 0.4715928787 0.39377509586 1.5968063515
          1.3142787865 1.233542457 1.0204128987 2.1666178295 1.7198217894 1.8817120905
          1.5170502879 2.1645914186 1.6854181052 2.165604624 1.7026199473 1.6243094683
          1.1235394332 1.8944504435 1.4044787692 -4.2320904509 -3.0359189849 -3.1656603287
          -3.6340047179 -2.2931640432 -2.729412186 -3.3126808118 -2.7015458143 -3.7723856314
          -2.9336030715 -2.2177791478 -1.8539206136 -2.7652299798 -2.277733214 -1.0033729688
          -0.86932424004 -1.6105760583 -1.3616224268 0.10030973661 0.086608465727 -0.45153161609
          -0.39135788716 1.1884931068 1.0293858347 0.64440142172 0.55799715021 2.3614865764
          1.9791464639 1.7749898416 1.5042661493 3.4015461397 2.7840819846 2.881516358
          2.3816142243 4.2821278144 3.2233596165 3.841836977 3.0037208005 3.1027974684
          2.3635534683 3.6924626414 2.7934565424 -6.7840605655 -7.5893461417 -5.5080755082
          -7.1867033536 -5.3126325633 -5.4103540358 -5.3270969438 -4.3198888778 -6.0555787547
          -4.913982193 -2.7893175149 -2.5035483313 -4.0582072293 -3.4117186046 -1.2319753825
          -1.1176741756 -2.0106464487 -1.8106112535 0.11471940212 0.10751456937 -0.55862799016
          -0.50507980313 1.4460729196 1.3172830132 0.78039616085 0.71239879128 2.9515646683
          2.6565256223 2.1988187939 1.9869043178 5.4143743117 4.4079602257 4.18296949
          3.532242924 6.8072358869 5.5446818506 6.1108050993 4.9763210382 7.5984715455
          5.3506345069 7.2028537162 5.4476581788 -16.235715913 -15.630687639 -11.509888239
          -15.933201776 -11.61001689 -11.559952565 -5.2379389794 -5.2825179616 -10.736827446
          -8.3962031004 -3.1771110063 -2.9832142606 -4.2075249929 -4.1328661111 -1.0546723403
          -1.1433238614 -2.1158916733 -2.063269061 0.10569535427 0.1102073782 -0.47448849304
          -0.5165582416 1.2423131996 1.3441930596 0.67400427692 0.72720021889 3.3202532803
          3.1359089743 2.2812832399 2.2400510169 5.2771603253 5.3457673185 4.2987068028
          4.2408381464 16.145355294 11.47629559 10.71125781 8.4110314544 15.481086027
          11.539778786 15.813220661 11.508037188 -3.9058112739 -83.707025243 -10.070763593
          -43.806418258 -49.668856441 -29.869810017 -6.0002759259 -5.6191074527 -4.9530435999
          -7.844935523 -1.1117259255 -2.1444184659 -3.5560009257 -3.8817629593 -0.8197853134
          -0.93722882688 -0.96575561944 -1.5408236464 0.085630101743 0.095662728006 -0.36707760583
          -0.42078304943 0.98392441985 1.1131188097 0.5347772608 0.60439076886 1.1983344048
          2.2592938426 1.0911294123 1.6862063261 6.0059684058 5.6415643655 3.6021514053
          3.950429104 3.7799526803 9.962653987 4.892960543 7.8021091763 82.985255724
          49.233170876 43.382604202 29.597912431
        </DataArray>
      </PointData>
      <CellData>
        <DataArray type="Int32" Name="libmesh_elem_id" format="ascii" RangeMin="0" RangeMax="99">
          0 1 2 3 4 5
          6 7 8 9 10 11
          12 13 14 15 16 17
          18 19 20 21 22 23
          24 25 26 27 28 29
          30 31 32 33 34 35
          36 37 38 39 40 41
          42 43 44 45 46 47
          48 49 50 51 52 53
          54 55 56 57 58 59
          60 61 62 63 64 65
          66 67 68 69 70 71
          72 73 74 75 76 77
          78 79 80 81 82 83
          84 85 86 87 88 89
          90 91 92 93 94 95
          96 97 98 99
        </DataArray>
        <DataArray type="Int32" Name="subdomain_id" format="ascii" RangeMin="0" RangeMax="0">
          0 0 0 0 0 0
          0 0 0 0 0 0
          0 0 0 0 0 0
          0 0 0 0 0 0
          0 0 0 0 0 0
          0 0 0 0 0 0
          0 0 0 0 0 0
          0 0 0 0 0 0
          0 0 0 0 0 0
          0 0 0 0 0 0
          0 0 0 0 0 0
          0 0 0 0 0 0
          0 0 0 0 0 0
          0 0 0 0 0 0
          0 0 0 0 0 0
          0 0 0 0 0 0
          0 0 0 0
        </DataArray>
        <DataArray type="Int32" Name="processor_id" format="ascii" RangeMin="0" RangeMax="0">
          0 0 0 0 0 0
          0 0 0 0 0 0
          0 0 0 0 0 0
          0 0 0 0 0 0
          0 0 0 0 0 0
          0 0 0 0 0 0
          0 0 0 0 0 0
          0 0 0 0 0 0
          0 0 0 0 0 0
          0 0 0 0 0 0
          0 0 0 0 0 0
          0 0 0 0 0 0
          0 0 0 0 0 0
          0 0 0 0 0 0
          0 0 0 0 0 0
          0 0 0 0 0 0
          0 0 0 0
        </DataArray>
      </CellData>
      <Points>
        <DataArray type="Float64" Name="Points" NumberOfComponents="3" format="ascii" RangeMin="0" RangeMax="1.4142135624">
          0 0 0 0.1 0 0
          0.1 0.1 0 0 0.1 0
          0.05 0 0 0.1 0.05 0
          0.05 0.1 0 0 0.05 0
          0.05 0.05 0 0.2 0 0
          0.2 0.1 0 0.15 0 0
          0.2 0.05 0 0.15 0.1 0
          0.15 0.05 0 0.3 0 0
          0.3 0.1 0 0.25 0 0
          0.3 0.05 0 0.25 0.1 0
          0.25 0.05 0 0.4 0 0
          0.4 0.1 0 0.35 0 0
          0.4 0.05 0 0.35 0.1 0
          0.35 0.05 0 0.5 0 0
          0.5 0.1 0 0.45 0 0
          0.5 0.05 0 0.45 0.1 0
          0.45 0.05 0 0.6 0 0
          0.6 0.1 0 0.55 0 0
          0.6 0.05 0 0.55 0.1 0
          0.55 0.05 0 0.7 0 0
          0.7 0.1 0 0.65 0 0
          0.7 0.05 0 0.65 0.1 0
          0.65 0.05 0 0.8 0 0
          0.8 0.1 0 0.75 0 0
          0.8 0.05 0 0.75 0.1 0
          0.75 0.05 0 0.9 0 0
          0.9 0.1 0 0.85 0 0
          0.9 0.05 0 0.85 0.1 0
          0.85 0.05 0 1 0 0
          1 0.1 0 0.95 0 0
          1 0.05 0 0.95 0.1 0
          0.95 0.05 0 0.1 0.2 0
          0 0.2 0 0.1 0.15 0
          0.05 0.2 0 0 0.15 0
          0.05 0.15 0 0.2 0.2 0
          0.2 0.15 0 0.15 0.2 0
          0.15 0.15 0 0.3 0.2 0
          0.3 0.15 0 0.25 0.2 0
          0.25 0.15 0 0.4 0.2 0
          0.4 0.15 0 0.35 0.2 0
          0.35 0.15 0 0.5 0.2 0
          0.5 0.15 0 0.45 0.2 0
          0.45 0.15 0 0.6 0.2 0
          0.6 0.15 0 0.55 0.2 0
          0.55 0.15 0 0.7 0.2 0
          0.7 0.15 0 0.65 0.2 0
          0.65 0.15 0 0.8 0.2 0
          0.8 0.15 0 0.75 0.2 0
          0.75 0.15 0 0.9 0.2 0
          0.9 0.15 0 0.85 0.2 0
          0.85 0.15 0 1 0.2 0
          1 0.15 0 0.95 0.2 0
          0.95 0.15 0 0.1 0.3 0
          0 0.3 0 0.1 0.25 0
          0.05 0.3 0 0 0.25 0
          0.05 0.25 0 0.2 0.3 0
          0.2 0.25 0 0.15 0.3 0
          0.15 0.25 0 0.3 0.3 0
          0.3 0.25 0 0.25 0.3 0
          0.25 0.25 0 0.4 0.3 0
          0.4 0.25 0 0.35 0.3 0
          0.35 0.25 0 0.5 0.3 0
          0.5 0.25 0 0.45 0.3 0
          0.45 0.25 0 0.6 0.3 0
          0.6 0.25 0 0.55 0.3 0
          0.55 0.25 0 0.7 0.3 0
          0.7 0.25 0 0.65 0.3 0
          0.65 0.25 0 0.8 0.3 0
          0.8 0.25 0 0.75 0.3 0
          0.75 0.25 0 0.9 0.3 0
          0.9 0.25 0 0.85 0.3 0
          0.85 0.25 0 1 0.3 0
          1 0.25 0 0.95 0.3 0
          0.95 0.25 0 0.1 0.4 0
          0 0.4 0 0.1 0.35 0
          0.05 0.4 0 0 0.35 0
          0.05 0.35 0 0.2 0.4 0
          0.2 0.35 0 0.15 0.4 0
          0.15 0.35 0 0.3 0.4 0
          0.3 0.35 0 0.25 0.4 0
          0.25 0.35 0 0.4 0.4 0
          0.4 0.35 0 0.35 0.4 0
          0.35 0.35 0 0.5 0.4 0
          0.5 0.35 0 0.45 0.4 0
          0.45 0.35 0 0.6 0.4 0
          0.6 0.35 0 0.55 0.4 0
          0.55 0.35 0 0.7 0.4 0
          0.7 0.35 0 0.65 0.4 0
          0.65 0.35 0 0.8 0.4 0
          0.8 0.35 0 0.75 0.4 0
          0.75 0.35 0 0.9 0.4 0
          0.9 0.35 0 0.85 0.4 0
          0.85 0.35 0 1 0.4 0
          1 0.35 0 0.95 0.4 0
          0.95 0.35 0 0.1 0.5 0
          0 0.5 0 0.1 0.45 0
          0.05 0.5 0 0 0.45 0
          0.05 0.45 0 0.2 0.5 0
          0.2 0.45 0 0.15 0.5 0
          0.15 0.45 0 0.3 0.5 0
          0.3 0.45 0 0.25 0.5 0
          0.25 0.45 0 0.4 0.5 0
          0.4 0.45 0 0.35 0.5 0
          0.35 0.45 0 0.5 0.5 0
          0.5 0.45 0 0.45 0.5 0
          0.45 0.45 0 0.6 0.5 0
          0.6 0.45 0 0.55 0.5 0
          0.55 0.45 0 0.7 0.5 0
          0.7 0.45 0 0.65 0.5 0
          0.65 0.45 0 0.8 0.5 0
          0.8 0.45 0 0.75 0.5 0
          0.75 0.45 0 0.9 0.5 0
          0.9 0.45 0 0.85 0.5 0
          0.85 0.45 0 1 0.5 0
          1 0.45 0 0.95 0.5 0
          0.95 0.45 0 0.1 0.6 0
          0 0.6 0 0.1 0.55 0
          0.05 0.6 0 0 0.55 0
          0.05 0.55 0 0.2 0.6 0
          0.2 0.55 0 0.15 0.6 0
          0.15 0.55 0 0.3 0.6 0
          0.3 0.55 0 0.25 0.6 0
          0.25 0.55 0 0.4 0.6 0
          0.4 0.55 0 0.35 0.6 0
          0.35 0.55 0 0.5 0.6 0
          0.5 0.55 0 0.45 0.6 0
          0.45 0.55 0 0.6 0.6 0
          0.6 0.55 0 0.55 0.6 0
          0.55 0.55 0 0.7 0.6 0
          0.7 0.55 0 0.65 0.6 0
          0.65 0.55 0 0.8 0.6 0
          0.8 0.55 0 0.75 0.6 0
          0.75 0.55 0 0.9 0.6 0
          0.9 0.55 0 0.85 0.6 0
          0.85 0.55 0 1 0.6 0
          1 0.55 0 0.95 0.6 0
          0.95 0.55 0 0.1 0.7 0
          0 0.7 0 0.1 0.65 0
          0.05 0.7 0 0 0.65 0
          0.05 0.65 0 0.2 0.7 0
          0.2 0.65 0 0.15 0.7 0
          0.15 0.65 0 0.3 0.7 0
          0.3 0.65 0 0.25 0.7 0
          0.25 0.65 0 0.4 0.7 0
          0.4 0.65 0 0.35 0.7 0
          0.35 0.65 0 0.5 0.7 0
          0.5 0.65 0 0.45 0.7 0
          0.45 0.65 0 0.6 0.7 0
          0.6 0.65 0 0.55 0.7 0
          0.55 0.65 0 0.7 0.7 0
          0.7 0.65 0 0.65 0.7 0
          0.65 0.65 0 0.8 0.7 0
          0.8 0.65 0 0.75 0.7 0
          0.75 0.65 0 0.9 0.7 0
          0.9 0.65 0 0.85 0.7 0
          0.85 0.65 0 1 0.7 0
          1 0.65 0 0.95 0.7 0
          0.95 0.65 0 0.1 0.8 0
          0 0.8 0 0.1 0.75 0
          0.05 0.8 0 0 0.75 0
          0.05 0.75 0 0.2 0.8 0
          0.2 0.75 0 0.15 0.8 0
          0.15 0.75 0 0.3 0.8 0
          0.3 0.75 0 0.25 0.8 0
          0.25 0.75 0 0.4 0.8 0
          0.4 0.75 0 0.35 0.8 0
          0.35 0.75 0 0.5 0.8 0
          0.5 0.75 0 0.45 0.8 0
          0.45 0.75 0 0.6 0.8 0
          0.6 0.75 0 0.55 0.8 0
          0.55 0.75 0 0.7 0.8 0
          0.7 0.75 0 0.65 0.8 0
          0.65 0.75 0 0.8 0.8 0
          0.8 0.75 0 0.75 0.8 0
          0.75 0.75 0 0.9 0.8 0
          0.9 0.75 0 0.85 0.8 0
          0.85 0.75 0 1 0.8 0
          1 0.75 0 0.95 0.8 0
          0.95 0.75 0 0.1 0.9 0
          0 0.9 0 0.1 0.85 0
          0.05 0.9 0 0 0.85 0
          0.05 0.85 0 0.2 0.9 0