<?xml version="1.0"?>
<VTKFile type="UnstructuredGrid" version="0.1" byte_order="LittleEndian" compressor="vtkZLibDataCompressor">
  <UnstructuredGrid>
    <Piece NumberOfPoints="441" NumberOfCells="100">
      <PointData>
        <DataArray type="Float64" Name="u" format="ascii" RangeMin="-0.15667178714" RangeMax="1">
          1.4708476121e-16 -4.386830816e-16 -0.0040940163099 -6.8320750863e-17 5.8400282038e-17 -0.0019541781512
          -0.0011038579396 3.8135343868e-16 -0.00034802606773 -2.641483685e-15 -0.013615363809 -5.6017215257e-15
          -0.0074048097524 -0.0084105045498 -0.0043056946215 -5.2879835119e-15 -0.024180736415 -1.6043018308e-14
          -0.013701278837 -0.019053409806 -0.010658838774 -7.2020799599e-15 -0.031960162064 -2.5318096366e-14
          -0.018337390686 -0.028625345399 -0.016371473501 -7.893950023e-15 -0.034775820419 -3.0631794163e-14
          -0.020016870386 -0.034104811107 -0.019645565558 -7.1980900437e-15 -0.031948260362 -3.0622578313e-14
          -0.018329616379 -0.034097733862 -0.019640836851 -5.2840376274e-15 -0.024168519872 -2.5299939301e-14
          -0.013693433009 -0.028611210345 -0.016362128897 -2.6406569566e-15 -0.013611953977 -1.6033096096e-14
          -0.0074027930118 -0.019045084277 -0.01065359577 -4.39353458e-16 -0.004095515129 -5.6033920921e-15
          -0.0019552277796 -0.0084109951741 -0.0043063163976 1.4702032243e-16 -6.8784688692e-17 5.7136208793e-17
          3.8010710009e-16 -0.0011049056785 -0.00034870661861 -0.0075281491987 -1.6397227824e-16 -0.0059273588576
          -0.0020972702218 -5.6648311707e-16 -0.0016636642922 -0.023658157749 -0.018869342652 -0.015060577252
          -0.011902836724 -0.040542745633 -0.032765873753 -0.032426778898 -0.026050465936 -0.052694538427
          -0.042904295479 -0.047493033039 -0.038558542183 -0.057048394736 -0.046560694133 -0.055994866539
          -0.045681588774 -0.052666337989 -0.042886860606 -0.05597860365 -0.045671339493 -0.040510123153
          -0.032747098577 -0.047458293196 -0.038537506339 -0.023643597588 -0.018862955362 -0.032401305898
          -0.026036917789 -0.0075282342677 -0.0059288956668 -0.015056045485 -0.011902468191 -1.6483035733e-16
          -5.6898909305e-16 -0.0020985154995 -0.0016649415493 -0.010932806463 -2.1692801718e-16 -0.0091311016083
          -0.0030423166238 -7.2463921924e-16 -0.0025277691059 -0.033884199062 -0.028513157456 -0.021762637566
          -0.018239098934 -0.057043301792 -0.048418425644 -0.046029286646 -0.038896634898 -0.073147432841
          -0.062525186361 -0.066312608432 -0.056509335589 -0.078789212307 -0.067530207131 -0.077429897286
          -0.066320264245 -0.073066471742 -0.062476958758 -0.077384706726 -0.066292929239 -0.056937798413
          -0.048358788072 -0.066209039704 -0.056448681437 -0.033818608536 -0.028480511188 -0.04593699657
          -0.038846834294 -0.010918128441 -0.0091266220534 -0.021726258341 -0.018223765716 -2.1864315311e-16
          -7.3033391738e-16 -0.0030408428242 -0.002528650421 -0.015777986375 -3.8397488923e-16 -0.013104181765
          -0.0044907010393 -1.2293540909e-15 -0.0037086276044 -0.047780157421 -0.040193385327 -0.0310384653
          -0.025921310049 -0.078411785677 -0.066960879543 -0.064108622461 -0.054338350427 -0.098541939063
          -0.085116507902 -0.090125720452 -0.077458280811 -0.10532070692 -0.091373834226 -0.10371509719
          -0.089877064618 -0.098342677684 -0.084985867415 -0.10360647339 -0.08980507827 -0.078130862714
          -0.066783327031 -0.089863364362 -0.077288559387 -0.047576300224 -0.040073249313 -0.063846734801
          -0.054177563162 -0.015714640479 -0.013070816338 -0.030908445187 -0.025848994896 -3.8432183822e-16
          -1.2330307969e-15 -0.0044752867876 -0.0037014974012 -0.023388933167 -4.4977355684e-16 -0.019104271432
          -0.0065671963274 -1.4420972916e-15 -0.0052790390602 -0.067745564316 -0.056961969221 -0.045250687637
          -0.037475287626 -0.10588624021 -0.09151259822 -0.088618978581 -0.075560264456 -0.12839716577
          -0.11327614062 -0.11929115588 -0.10430594773 -0.13540153889 -0.12036060568 -0.13379329537
          -0.11870366175 -0.12800851194 -0.11298840302 -0.13358592507 -0.11854827246 -0.10529431579
          -0.091091806616 -0.11876363368 -0.10392176682 -0.067260642044 -0.056636539941 -0.08803583968
          -0.075156837449 -0.023212869066 -0.018995681125 -0.044912625624 -0.037257310691 -4.5071674967e-16
          -1.4486353238e-15 -0.0065228929172 -0.0052544393467 -0.035587524902 -1.5497415411e-15 -0.028919799766
          -0.011142021881 -4.4375758111e-15 -0.0088442341318 -0.09372292244 -0.080101265722 -0.065433398108
          -0.054356405064 -0.13383958142 -0.12074313695 -0.11723866549 -0.10304417619 -0.15204892594
          -0.14234765379 -0.14521996557 -0.13382178072 -0.15667178714 -0.14864055859 -0.15570579365
          -0.14723821583 -0.15150048692 -0.14186120925 -0.15542391165 -0.14698323515 -0.13290144702
          -0.11996376524 -0.14443767734 -0.13314675115 -0.092823210261 -0.079419804702 -0.11624008137
          -0.10225063864 -0.035199375189 -0.028648133244 -0.064748865276 -0.053863038629 -1.5313843365e-15
          -4.3987507826e-15 -0.011021075722 -0.0087628053891 -0.053109259743 -1.2676796261e-15 -0.043416353604
          -0.015953842341 -3.8455917284e-15 -0.012171956289 -0.11705624895 -0.10759663701 -0.091857889999
          -0.079209302444 -0.13788006768 -0.14167755132 -0.13190638622 -0.12851774088 -0.13724904945
          -0.15288797655 -0.13884441691 -0.14938677529 -0.13488835463 -0.15456733715 -0.13554747555
          -0.1542966647 -0.13688612162 -0.15236430662 -0.13537686187 -0.15403425216 -0.13703965526
          -0.14068505841 -0.13825603704 -0.14860948721 -0.11592393505 -0.10650423064 -0.13084009624
          -0.12738639148 -0.052467105364 -0.042898308758 -0.090832865798 -0.078314901523 -1.2423257095e-15
          -3.7741332636e-15 -0.015747892505 -0.012022356065 -0.071837330236 -1.2045229376e-14 -0.064650441571
          -0.03532221594 -3.0111733123e-14 -0.027072481913 -0.090928377283 -0.11528956167 -0.094523466253
          -0.097858307298 -0.04780847708 -0.11254527786 -0.072374287475 -0.11966055199 -0.012164686521
          -0.09479358434 -0.026833216653 -0.10277786781 5.4557200683e-05 -0.087678172389 -0.0028250559754
          -0.089420212075 -0.012611650682 -0.094774155098 -0.0030795696185 -0.089437793748 -0.048305552071
          -0.11220533928 -0.027384051664 -0.10264746047 -0.090744179074 -0.1144302445 -0.072617777194
          -0.11904091908 -0.071293941936 -0.063942898757 -0.093920621223 -0.096889284446 -1.1935167036e-14
          -2.9783071637e-14 -0.035019454341 -0.026783178453 -0.0031271764313 -4.935869528e-14 -0.062631923434
          -0.024183581753 -3.9717756981e-14 -0.026605667533 0.160580731 -0.020204239766 0.058395406539
          -0.072152331694 0.28740686344 0.078796208103 0.24354295064 0.039911709413 0.33813165361
          0.12665197271 0.3167572098 0.10636405555 0.35458038712 0.14328390737 0.35125470333
          0.13965487768 0.33707331987 0.12574981309 0.35074540861 0.13920277835 0.28541213296
          0.077320978439 0.31516605062 0.10507871926 0.15807503214 -0.021346181702 0.24115431119
          0.03843547065 -0.0040868930683 -0.062630566466 0.056382081924 -0.072665296989 -4.885094172e-14
          -3.8507926661e-14 -0.023422786333 -0.026269398406 1 0.5 0.23769630938
          1 -8.3117002157e-14 0.014881691084 1 0.50701452691 1
          0.43535665049 1 0.59443558243 1 0.55747485648 1
          0.63352958634 1 0.62087746629 1 0.6427090178 1
          0.64068642699 1 0.63287046208 1 0.64032802048 1
          0.59296656668 1 0.61984346162 1 0.50492029645 1
          0.55553879268 1 0.23536462398 1 0.43283639479 0.5
          -8.3169886113e-14 1 0.013335519373
        </DataArray>
        <DataArray type="Float64" Name="v" format="ascii" RangeMin="-0.32554855516" RangeMax="0.32756544302">
          -1.4907099842e-16 8.3296766745e-17 0.0040214956791 4.0299169035e-16 -3.6791195305e-16 0.0010802959235
          0.0019527418112 -7.1312122635e-17 0.00034838515274 1.6581420733e-16 0.0060658531821 6.2718527679e-16
          0.0016868259735 0.0054337886202 0.0015281833881 1.5241179054e-16 0.0054440515388 6.5876058535e-16
          0.0015287200864 0.0060328464302 0.0016917879036 8.3056584172e-17 0.0031099810979 4.8852917719e-16
          0.00087112249965 0.0044312431556 0.0012482366902 -2.9388595312e-19 -4.6226271218e-06 1.6877828124e-16
          -1.2893347815e-06 0.0015992970029 0.00044850043971 -8.3351185525e-17 -0.0031146966311 -1.7071840153e-16
          -0.0008723153497 -0.0016072940084 -0.00045072848039 -1.5216887037e-16 -0.005440544691 -4.8859443966e-16
          -0.0015274277993 -0.0044316469619 -0.0012481140683 -1.6546024232e-16 -0.006060528753 -6.5733285898e-16
          -0.001685055221 -0.0060272237915 -0.0016898432393 -8.338026618e-17 -0.0040218806539 -6.2661324211e-16
          -0.0010803302212 -0.0054310584296 -0.0015272294763 1.4906860854e-16 -4.0420546162e-16 3.6722390634e-16
          7.0021326677e-17 -0.001954634015 -0.00034885505976 0.014503520687 2.7333917763e-15 0.0084976726748
          0.0080471553091 5.6806252386e-15 0.0044460329547 0.020453627415 0.012421452897 0.018647151504
          0.011189568609 0.018069889617 0.011074591189 0.020132006027 0.012299342064 0.010273045472
          0.0063193535439 0.014653462861 0.0090017013727 -1.5947725368e-05 -8.8037448163e-06 0.0052764202584
          0.0032490509049 -0.010289748474 -0.006327991846 -0.0053041326222 -0.0032641824664 -0.018058187797
          -0.011066834008 -0.014655506915 -0.0090017845797 -0.020433516279 -0.012409847621 -0.020112201001
          -0.012287299084 -0.014501839132 -0.0084975647234 -0.018634738036 -0.011183038696 -2.7381010415e-15
          -5.69043888e-15 -0.0080524072124 -0.0044492167469 0.030701510175 6.5588130953e-15 0.021834112599
          0.017773154646 1.8256992482e-14 0.012426285782 0.041517053144 0.030069947901 0.038486405869
          0.027658588468 0.035899259403 0.026312671979 0.040367758115 0.029428620641 0.020166264348
          0.014885486082 0.028909100616 0.021275219435 -4.5711486795e-05 -2.642545019e-05 0.01032027972
          0.0076344909371 -0.02021975635 -0.014914185122 -0.010401422427 -0.0076807550568 -0.035876301071
          -0.026294825041 -0.028924401026 -0.021280246122 -0.041459235649 -0.030035146046 -0.040318079224
          -0.029396201334 -0.03068279818 -0.021826976046 -0.038442191821 -0.027634507134 -6.5669296311e-15
          -1.8282542361e-14 -0.017776343263 -0.012431834902 0.053974594461 1.1927560636e-14 0.041181946141
          0.031777127234 3.6598807011e-14 0.024064528594 0.070471207944 0.054838858492 0.066461233681
          0.051210748821 0.059254771399 0.046822351607 0.06750485712 0.052961275954 0.03262074225
          0.026079075671 0.047189468284 0.037524999095 -0.00012194778259 -7.4292735188e-05 0.016581686534
          0.013308542556 -0.032778305612 -0.026169952494 -0.016802490749 -0.013441635625 -0.059223821616
          -0.04679218114 -0.04725619396 -0.037556466348 -0.070318212669 -0.05474282098 -0.067394168629
          -0.052884671607 -0.053880742352 -0.041137837917 -0.066317432345 -0.051129484091 -1.1931481e-14
          -3.6622578322e-14 -0.031748022202 -0.024057813509 0.087154041035 2.0160490822e-14 0.069063058205
          0.052405517878 6.2659640219e-14 0.040881415383 0.10936878653 0.088450390874 0.10525857431
          0.084239057599 0.087983625671 0.073031187096 0.10245967865 0.08393935954 0.04688301856
          0.039636285091 0.068800078828 0.057703744325 -0.00028147503762 -0.00018734789463 0.023581326338
          0.020053738549 -0.047278925766 -0.039887722857 -0.024100587603 -0.02039571524 -0.08797501693
          -0.07300159858 -0.069008834801 -0.057822345439 -0.10902167079 -0.08821383749 -0.10224939243
          -0.083781029182 -0.08686186923 -0.068889823672 -0.10488574854 -0.084000382981 -2.0129536164e-14
          -6.2622433722e-14 -0.052264974998 -0.040812163596 0.13681390713 3.2640901476e-14 0.10884036552
          0.084314942214 1.0509747426e-13 0.066290682248 0.15800838464 0.13273446088 0.15887490137
          0.12969889521 0.11821850457 0.10340748373 0.14242329951 0.12230141188 0.059731153761
          0.053870867922 0.089788355758 0.079843634928 -0.00053444806732 -0.00039804175478 0.029533146056
          0.026895546046 -0.060546559207 -0.054453282145 -0.030537096142 -0.027636366599 -0.11834298635
          -0.10344048797 -0.090300764396 -0.080177762343 -0.15735204912 -0.13224232328 -0.14212840775
          -0.12203634958 -0.13603718274 -0.10836067223 -0.15803174328 -0.12912962204 -3.2497803656e-14
          -1.0477795886e-13 -0.083869012574 -0.066036224514 0.20221782932 5.4930174656e-14 0.16856212394
          0.13312525254 1.6702405697e-13 0.10524988045 0.20743204183 0.18354693449 0.22151039839
          0.19020520144 0.13672270776 0.13052255499 0.17533425493 0.16107084294 0.063827689978
          0.063535898642 0.099075858588 0.097080644876 -0.00077561338989 -0.0006765523156 0.030888518836
          0.03107860036 -0.065136796019 -0.06461714898 -0.032381605654 -0.032362832971 -0.13719944251
          -0.13079993263 -0.10004991655 -0.097822272941 -0.20658048329 -0.18274932343 -0.17516719551
          -0.16079806023 -0.20074098175 -0.16744202753 -0.22014597234 -0.18907812084 -5.4540783378e-14
          -1.6603730034e-13 -0.13212442255 -0.1045640541 0.29584975239 9.5581571756e-14 0.24147860816
          0.21904188739 2.9672062689e-13 0.16706043843 0.21695320118 0.22367398848 0.27654292398
          0.25133328709 0.11864258951 0.13394417743 0.16288330559 0.17943838182 0.049532268216
          0.059669747285 0.081190567342 0.094391329504 -0.00074501287932 -0.00082422795109 0.023069415932
          0.028462202252 -0.050919216594 -0.061146904879 -0.024533091061 -0.03007313807 -0.11958103913
          -0.13469878411 -0.08242951112 -0.095594738047 -0.21644102251 -0.22293868121 -0.163263794
          -0.17953831841 -0.29338310678 -0.2395231844 -0.2748756792 -0.24976722102 -9.4660420573e-14
          -2.9433979458e-13 -0.21705590184 -0.16564783703 0.23982735397 2.457998444e-13 0.32756544302
          0.31276660314 4.9776035797e-13 0.26093038997 0.11825913307 0.18105567541 0.15896545922
          0.2648393012 0.050437701096 0.09121098841 0.081679265121 0.12809237791 0.019383332467
          0.035032735496 0.03124743025 0.060007557351 -0.00033161128676 -0.00057090473061 0.0092952430681
          0.015988403299 -0.02006165492 -0.03613551959 -0.0099656501584 -0.01711271451 -0.051203605616
          -0.092213782157 -0.031963081513 -0.061110270676 -0.11863212703 -0.18108200234 -0.082338020127
          -0.12874416367 -0.23892179416 -0.32554855516 -0.1591352404 -0.26394376994 -2.4405710657e-13
          -4.9275371762e-13 -0.31031865243 -0.25863816254 2.5317160986e-14 1.3048128573e-13 0.088035588667
          6.4638566532e-13 1.1730943872e-12 0.30861411764 1.4494633569e-14 0.051312649319 -1.2003049923e-14
          0.035189030744 -1.1672559995e-15 0.012612799302 3.8683510068e-14 0.035075379838 1.2394407936e-15
          0.0065687518361 -3.8912291278e-15 0.0065020964086 9.1223893364e-18 -8.4442872416e-05 3.98756723e-15
          0.0038249698435 -1.2249029462e-15 -0.0067470018325 -3.9610087058e-15 -0.004013209952 1.1581844574e-15
          -0.012884300526 4.0565585143e-15 -0.0066623631998 -1.4285251964e-14 -0.051303484161 -3.8698263432e-14
          -0.035369369814 -2.6204999584e-14 -0.088636332825 1.1895724809e-14 -0.035403682698 -1.2897373275e-13
          -1.1641786435e-12 -6.4342748126e-13 -0.30709701226
        </DataArray>
        <DataArray type="Float64" Name="p" format="ascii" RangeMin="-84.404594037" RangeMax="83.783215012">
          -0.53740253678 -0.59825696023 -0.53864672484 -0.47466345379 -0.56782974851 -0.56845184253
          -0.50665508932 -0.50603299529 -0.53724241891 -0.63169887331 -0.53322539747 -0.61497791677
          -0.58246213539 -0.53593606115 -0.57545698896 -0.51046515881 -0.423959119 -0.57108201606
          -0.4672121389 -0.47859225823 -0.52483713715 -0.26892074149 -0.2186527332 -0.38969295015
          -0.24378673735 -0.3213059261 -0.35549943812 0.04069716861 0.040663170906 -0.11411178644
          0.040680169758 -0.088994781147 -0.10155328379 0.35008058916 0.29978732801 0.19538887888
          0.32493395859 0.17022524946 0.18280706417 0.59117368072 0.50471611854 0.47062713494
          0.54794489963 0.40225172328 0.43643942911 0.71220318322 0.61378891698 0.65168843197
          0.6629960501 0.55925251776 0.60547047487 0.67887515892 0.61928391073 0.69553917107
          0.64907953482 0.61653641385 0.65603779246 0.61805151776 0.55532780106 0.64846333834
          0.58668965941 0.58730585589 0.61788459712 -0.55077232205 -0.42239436383 -0.54470952345
          -0.48658334294 -0.44852890881 -0.49661921613 -0.55548163719 -0.54435351733 -0.55312697962
          -0.54453152039 -0.43901397759 -0.43148654829 -0.49724780739 -0.48792003281 -0.22574595583
          -0.22219934451 -0.33237996671 -0.3268429464 0.041019567618 0.040841369262 -0.092363194103
          -0.090678987625 0.30746267651 0.30362500226 0.17424112206 0.17223318576 0.52007456393
          0.51239534123 0.41376862022 0.40801017175 0.63619219097 0.62499055397 0.57813337745
          0.5686929476 0.63169199942 0.62548795507 0.63394209519 0.62523925452 0.50339317057
          0.52936048581 0.567542585 0.57742422044 -0.68708699917 -0.49608777108 -0.61892966061
          -0.59158738512 -0.45924106746 -0.53908536403 -0.69970516802 -0.6275934026 -0.6933960836
          -0.62326153161 -0.5538084377 -0.49641120764 -0.62675680286 -0.56200230512 -0.28700235308
          -0.25637415445 -0.42040539539 -0.37639268105 0.042172838077 0.041596202847 -0.1224147575
          -0.1073889758 0.37069909936 0.33908088794 0.20643596872 0.19033854539 0.63613903316
          0.57810679854 0.50341906626 0.45859384324 0.78115924778 0.70867571938 0.70864914047
          0.64339125896 0.76881047454 0.70025123698 0.77498486116 0.70446347818 0.57835588738
          0.54087452898 0.67358318096 0.62056288298 -0.99388890361 -0.73894749359 -0.84048795139
          -0.8664181986 -0.61751763233 -0.72900279186 -1.0121840468 -0.8559446074 -1.0030364752
          -0.8482162794 -0.7891500707 -0.6714792542 -0.90066705874 -0.7637119308 -0.41098510617
          -0.34899372963 -0.60006758844 -0.51023649191 0.045024859588 0.043598848832 -0.18298012329
          -0.1526974404 0.49969160848 0.43519535392 0.27235823403 0.23939710138 0.87476866078
          0.75545384697 0.68723013463 0.59532460045 1.0954238879 0.93829156784 0.98509627434
          0.84687270741 1.07744943 0.92312995228 1.086436659 0.93071076006 0.8236057231
          0.70098080524 0.95052757656 0.81205537876 -1.6043961283 -1.1703590869 -1.299142516
          -1.3873776076 -0.95465329024 -1.1268979031 -1.5491664869 -1.2806752669 -1.5767813076
          -1.2899088914 -1.1844533667 -0.9868017187 -1.3668099268 -1.1337384928 -0.60782465066
          -0.50940487841 -0.89613900868 -0.74810329856 0.051332549228 0.048178704408 -0.27824605072
          -0.230613087 0.70767702251 0.6036843155 0.37950478587 0.32593150995 1.277586698
          1.0761776794 0.99263186027 0.83993099745 1.6358845226 1.3656542053 1.4567356103
          1.2209159423 1.6896107915 1.3835301108 1.6627476571 1.374592158 1.259601303
          1.041603513 1.4746060473 1.2125668119 -2.565650319 -2.1324095443 -2.0850232237
          -2.3490299316 -1.6513843156 -1.8682037696 -2.4641470268 -2.0066567568 -2.5148986729
          -2.0458399903 -1.7615446902 -1.4729990284 -2.1128458585 -1.7398278926 -0.8844942133
          -0.74615943198 -1.3230194517 -1.1095792302 0.063287890934 0.057310220081 -0.41060316118
          -0.34442460595 1.0062751912 0.85697610685 0.53478154106 0.45714316346 1.8698463797
          1.5737165389 1.4380607854 1.2153463229 2.5570808146 2.0964826686 2.2134635972
          1.8350996038 2.6535035077 2.1715571496 2.6052921612 2.1340199091 2.2244568954
          1.7420290992 2.4389802015 1.9567931244 -4.6913023265 -3.5027029949 -3.6284763228
          -4.0970026607 -2.8175562696 -3.2230162962 -3.736853137 -3.1005000819 -4.2140777318
          -3.3644882023 -2.5511135117 -2.156329101 -3.1439833244 -2.6284145914 -1.1964391812
          -1.0404666972 -1.8737763465 -1.5983978991 0.081175741673 0.072231816303 -0.55763171974
          -0.48411744046 1.3517638103 1.1790195007 0.71646977598 0.62562565852 2.686413623
          2.2781300013 2.0190887166 1.728574751 3.8398970823 3.1984889485 3.2631553526
          2.7383094749 4.7696189444 3.7115612261 4.3047580134 3.4550250873 3.5935681074
          2.9090125014 4.1815935259 3.3102868637 -7.2887250232 -7.9077853209 -5.9900136749
          -7.5982551721 -5.7052441579 -5.8476289164 -5.8523375111 -4.794595324 -6.5705312672
          -5.3923044995 -3.2243010766 -2.8877072942 -4.5383192938 -3.8411513091 -1.4860127182
          -1.3412259497 -2.3551568974 -2.1144666219 0.096894796248 0.08903526896 -0.69455896099
          -0.62609534037 1.674907033 1.5133354217 0.88590091465 0.80118534531 3.3892523275
          3.0378329752 2.5320796803 2.2755841984 5.9725494838 4.9062232831 4.6809009056
          3.9720281291 7.3563686527 6.0629937986 6.6644590683 5.4846085408 7.9681272052
          5.7808476563 7.6622479289 5.9219207274 -16.911409059 -16.043949663 -12.100067041
          -16.477679361 -11.975867492 -12.037967266 -5.980214384 -5.9162759476 -11.445811721
          -9.0081714943 -3.7999636731 -3.5121323748 -4.8900890286 -4.7142041612 -1.4068709039
          -1.446441811 -2.6034172885 -2.4792870929 0.098761272861 0.097828034554 -0.6540548155
          -0.67430688824 1.5930644174 1.6339857252 0.84591284515 0.8659068799 3.9700878196
          3.6796700735 2.7815761185 2.6568278994 6.0869217749 6.0297356294 5.0285047973
          4.8547028515 16.906325707 12.13134718 11.496623741 9.0805414046 15.979603988
          11.973865597 16.442964848 12.052606388 -4.9512900901 -84.404594037 -10.931349574
          -44.677942064 -50.22427185 -30.577810712 -7.2084953088 -6.5943548464 -6.0798926994
          -8.7628522104 -2.0644871678 -2.9322254204 -4.6364912383 -4.7632901334 -1.3395408267
          -1.3732058653 -1.7020139972 -2.1527156428 0.086399222502 0.092580247682 -0.62657080208
          -0.64031280879 1.5135103389 1.5532873782 0.79995478069 0.82293381292 2.1929553599
          3.0815215898 1.8532328494 2.317404484 7.2829956035 6.6849586892 4.7379754817
          4.8832401395 4.9199909617 10.913158334 6.1014932826 8.7990585118 83.783215012
          49.8814095 44.351602987 30.397283917
        </DataArray>
      </PointData>
      <CellData>
        <DataArray type="Int32" Name="libmesh_elem_id" format="ascii" RangeMin="0" RangeMax="99">
          0 1 2 3 4 5
          6 7 8 9 10 11
          12 13 14 15 16 17
          18 19 20 21 22 23
          24 25 26 27 28 29
          30 31 32 33 34 35
          36 37 38 39 40 41
          42 43 44 45 46 47
          48 49 50 51 52 53
          54 55 56 57 58 59
          60 61 62 63 64 65
          66 67 68 69 70 71
          72 73 74 75 76 77
          78 79 80 81 82 83
          84 85 86 87 88 89
          90 91 92 93 94 95
          96 97 98 99
        </DataArray>
        <DataArray type="Int32" Name="subdomain_id" format="ascii" RangeMin="0" RangeMax="0">
          0 0 0 0 0 0
          0 0 0 0 0 0
          0 0 0 0 0 0
          0 0 0 0 0 0
          0 0 0 0 0 0
          0 0 0 0 0 0
          0 0 0 0 0 0
          0 0 0 0 0 0
          0 0 0 0 0 0
          0 0 0 0 0 0
          0 0 0 0 0 0
          0 0 0 0 0 0
          0 0 0 0 0 0
          0 0 0 0 0 0
          0 0 0 0 0 0
          0 0 0 0 0 0
          0 0 0 0
        </DataArray>
        <DataArray type="Int32" Name="processor_id" format="ascii" RangeMin="0" RangeMax="0">
          0 0 0 0 0 0
          0 0 0 0 0 0
          0 0 0 0 0 0
          0 0 0 0 0 0
          0 0 0 0 0 0
          0 0 0 0 0 0
          0 0 0 0 0 0
          0 0 0 0 0 0
          0 0 0 0 0 0
          0 0 0 0 0 0
          0 0 0 0 0 0
          0 0 0 0 0 0
          0 0 0 0 0 0
          0 0 0 0 0 0
          0 0 0 0 0 0
          0 0 0 0 0 0
          0 0 0 0
        </DataArray>
      </CellData>
      <Points>
        <DataArray type="Float64" Name="Points" NumberOfComponents="3" format="ascii" RangeMin="0" RangeMax="1.4142135624">
          0 0 0 0.1 0 0
          0.1 0.1 0 0 0.1 0
          0.05 0 0 0.1 0.05 0
          0.05 0.1 0 0 0.05 0
          0.05 0.05 0 0.2 0 0
          0.2 0.1 0 0.15 0 0
          0.2 0.05 0 0.15 0.1 0
          0.15 0.05 0 0.3 0 0
          0.3 0.1 0 0.25 0 0
          0.3 0.05 0 0.25 0.1 0
          0.25 0.05 0 0.4 0 0
          0.4 0.1 0 0.35 0 0
          0.4 0.05 0 0.35 0.1 0
          0.35 0.05 0 0.5 0 0
          0.5 0.1 0 0.45 0 0
          0.5 0.05 0 0.45 0.1 0
          0.45 0.05 0 0.6 0 0
          0.6 0.1 0 0.55 0 0
          0.6 0.05 0 0.55 0.1 0
          0.55 0.05 0 0.7 0 0
          0.7 0.1 0 0.65 0 0
          0.7 0.05 0 0.65 0.1 0
          0.65 0.05 0 0.8 0 0
          0.8 0.1 0 0.75 0 0
          0.8 0.05 0 0.75 0.1 0
          0.75 0.05 0 0.9 0 0
          0.9 0.1 0 0.85 0 0
          0.9 0.05 0 0.85 0.1 0
          0.85 0.05 0 1 0 0
          1 0.1 0 0.95 0 0
          1 0.05 0 0.95 0.1 0
          0.95 0.05 0 0.1 0.2 0
          0 0.2 0 0.1 0.15 0
          0.05 0.2 0 0 0.15 0
          0.05 0.15 0 0.2 0.2 0
          0.2 0.15 0 0.15 0.2 0
          0.15 0.15 0 0.3 0.2 0
          0.3 0.15 0 0.25 0.2 0
          0.25 0.15 0 0.4 0.2 0
          0.4 0.15 0 0.35 0.2 0
          0.35 0.15 0 0.5 0.2 0
          0.5 0.15 0 0.45 0.2 0
          0.45 0.15 0 0.6 0.2 0
          0.6 0.15 0 0.55 0.2 0
          0.55 0.15 0 0.7 0.2 0
          0.7 0.15 0 0.65 0.2 0
          0.65 0.15 0 0.8 0.2 0
          0.8 0.15 0 0.75 0.2 0
          0.75 0.15 0 0.9 0.2 0
          0.9 0.15 0 0.85 0.2 0
          0.85 0.15 0 1 0.2 0
          1 0.15 0 0.95 0.2 0
          0.95 0.15 0 0.1 0.3 0
          0 0.3 0 0.1 0.25 0
          0.05 0.3 0 0 0.25 0
          0.05 0.25 0 0.2 0.3 0
          0.2 0.25 0 0.15 0.3 0
          0.15 0.25 0 0.3 0.3 0
          0.3 0.25 0 0.25 0.3 0
          0.25 0.25 0 0.4 0.3 0
          0.4 0.25 0 0.35 0.3 0
          0.35 0.25 0 0.5 0.3 0
          0.5 0.25 0 0.45 0.3 0
          0.45 0.25 0 0.6 0.3 0
          0.6 0.25 0 0.55 0.3 0
          0.55 0.25 0 0.7 0.3 0
          0.7 0.25 0 0.65 0.3 0
          0.65 0.25 0 0.8 0.3 0
          0.8 0.25 0 0.75 0.3 0
          0.75 0.25 0 0.9 0.3 0
          0.9 0.25 0 0.85 0.3 0
          0.85 0.25 0 1 0.3 0
          1 0.25 0 0.95 0.3 0
          0.95 0.25 0 0.1 0.4 0
          0 0.4 0 0.1 0.35 0
          0.05 0.4 0 0 0.35 0
          0.05 0.35 0 0.2 0.4 0
          0.2 0.35 0 0.15 0.4 0
          0.15 0.35 0 0.3 0.4 0
          0.3 0.35 0 0.25 0.4 0
          0.25 0.35 0 0.4 0.4 0
          0.4 0.35 0 0.35 0.4 0
          0.35 0.35 0 0.5 0.4 0
          0.5 0.35 0 0.45 0.4 0
          0.45 0.35 0 0.6 0.4 0
          0.6 0.35 0 0.55 0.4 0
          0.55 0.35 0 0.7 0.4 0
          0.7 0.35 0 0.65 0.4 0
          0.65 0.35 0 0.8 0.4 0
          0.8 0.35 0 0.75 0.4 0
          0.75 0.35 0 0.9 0.4 0
          0.9 0.35 0 0.85 0.4 0
          0.85 0.35 0 1 0.4 0
          1 0.35 0 0.95 0.4 0
          0.95 0.35 0 0.1 0.5 0
          0 0.5 0 0.1 0.45 0
          0.05 0.5 0 0 0.45 0
          0.05 0.45 0 0.2 0.5 0
          0.2 0.45 0 0.15 0.5 0
          0.15 0.45 0 0.3 0.5 0
          0.3 0.45 0 0.25 0.5 0
          0.25 0.45 0 0.4 0.5 0
          0.4 0.45 0 0.35 0.5 0
          0.35 0.45 0 0.5 0.5 0
          0.5 0.45 0 0.45 0.5 0
          0.45 0.45 0 0.6 0.5 0
          0.6 0.45 0 0.55 0.5 0
          0.55 0.45 0 0.7 0.5 0
          0.7 0.45 0 0.65 0.5 0
          0.65 0.45 0 0.8 0.5 0
          0.8 0.45 0 0.75 0.5 0
          0.75 0.45 0 0.9 0.5 0
          0.9 0.45 0 0.85 0.5 0
          0.85 0.45 0 1 0.5 0
          1 0.45 0 0.95 0.5 0
          0.95 0.45 0 0.1 0.6 0
          0 0.6 0 0.1 0.55 0
          0.05 0.6 0 0 0.55 0
          0.05 0.55 0 0.2 0.6 0
          0.2 0.55 0 0.15 0.6 0
          0.15 0.55 0 0.3 0.6 0
          0.3 0.55 0 0.25 0.6 0
          0.25 0.55 0 0.4 0.6 0
          0.4 0.55 0 0.35 0.6 0
          0.35 0.55 0 0.5 0.6 0
          0.5 0.55 0 0.45 0.6 0
          0.45 0.55 0 0.6 0.6 0
          0.6 0.55 0 0.55 0.6 0
          0.55 0.55 0 0.7 0.6 0
          0.7 0.55 0 0.65 0.6 0
          0.65 0.55 0 0.8 0.6 0
          0.8 0.55 0 0.75 0.6 0
          0.75 0.55 0 0.9 0.6 0
          0.9 0.55 0 0.85 0.6 0
          0.85 0.55 0 1 0.6 0
          1 0.55 0 0.95 0.6 0
          0.95 0.55 0 0.1 0.7 0
          0 0.7 0 0.1 0.65 0
          0.05 0.7 0 0 0.65 0
          0.05 0.65 0 0.2 0.7 0
          0.2 0.65 0 0.15 0.7 0
          0.15 0.65 0 0.3 0.7 0
          0.3 0.65 0 0.25 0.7 0
          0.25 0.65 0 0.4 0.7 0
          0.4 0.65 0 0.35 0.7 0
          0.35 0.65 0 0.5 0.7 0
          0.5 0.65 0 0.45 0.7 0
          0.45 0.65 0 0.6 0.7 0
          0.6 0.65 0 0.55 0.7 0
          0.55 0.65 0 0.7 0.7 0
          0.7 0.65 0 0.65 0.7 0
          0.65 0.65 0 0.8 0.7 0
          0.8 0.65 0 0.75 0.7 0
          0.75 0.65 0 0.9 0.7 0
          0.9 0.65 0 0.85 0.7 0
          0.85 0.65 0 1 0.7 0
          1 0.65 0 0.95 0.7 0
          0.95 0.65 0 0.1 0.8 0
          0 0.8 0 0.1 0.75 0
          0.05 0.8 0 0 0.75 0
          0.05 0.75 0 0.2 0.8 0
          0.2 0.75 0 0.15 0.8 0
          0.15 0.75 0 0.3 0.8 0
          0.3 0.75 0 0.25 0.8 0
          0.25 0.75 0 0.4 0.8 0
          0.4 0.75 0 0.35 0.8 0
          0.35 0.75 0 0.5 0.8 0
          0.5 0.75 0 0.45 0.8 0
          0.45 0.75 0 0.6 0.8 0
          0.6 0.75 0 0.55 0.8 0
          0.55 0.75 0 0.7 0.8 0
          0.7 0.75 0 0.65 0.8 0
          0.65 0.75 0 0.8 0.8 0
          0.8 0.75 0 0.75 0.8 0
          0.75 0.75 0 0.9 0.8 0
          0.9 0.75 0 0.85 0.8 0
          0.85 0.75 0 1 0.8 0
          1 0.75 0 0.95 0.8 0