<?xml version="1.0"?>
<VTKFile type="UnstructuredGrid" version="0.1" byte_order="LittleEndian" compressor="vtkZLibDataCompressor">
  <UnstructuredGrid>
    <Piece NumberOfPoints="441" NumberOfCells="100">
      <PointData>
        <DataArray type="Float64" Name="u" format="ascii" RangeMin="-0.19518808178" RangeMax="1">
          2.1304770551e-16 -1.5149686834e-16 -0.0050911785726 2.9105157579e-17 6.7418027012e-16 -0.0019544352978
          -0.0012463689901 9.4490687243e-16 -0.00019430581082 -2.9478223669e-15 -0.019226895371 -5.096033354e-15
          -0.0094757962759 -0.011201401937 -0.0049566700897 -7.0468732356e-15 -0.036921928156 -2.0041308645e-14
          -0.019593936258 -0.028105107297 -0.014528634281 -1.0313897996e-14 -0.050927678497 -3.5215915791e-14
          -0.02769650344 -0.044808794927 -0.024180281342 -1.1542199906e-14 -0.056177174214 -4.4460885023e-14
          -0.030745324809 -0.054891682858 -0.030044936874 -1.0309444914e-14 -0.050916793056 -4.4448757995e-14
          -0.027689485335 -0.054883596268 -0.030039399435 -7.0468348094e-15 -0.036923704542 -3.5202016174e-14
          -0.019595848608 -0.044800346039 -0.024174801976 -2.9548594374e-15 -0.019249236205 -2.0057556052e-14
          -0.009491036462 -0.028118605414 -0.014538606736 -1.5637507046e-16 -0.0051085318177 -5.1256897836e-15
          -0.0019654575931 -0.011226338406 -0.0049734522899 2.1323960042e-16 2.7315208219e-17 6.6868627362e-16
          9.4127172204e-16 -0.0012532093169 -0.00019810544036 -0.011286795333 -1.5241700153e-16 -0.0082721812888
          -0.003039860364 -3.761135652e-16 -0.0022001179338 -0.037754439838 -0.028664743439 -0.02332737983
          -0.017372441388 -0.067763983188 -0.052780466577 -0.053060084902 -0.040864714663 -0.090571825075
          -0.07150514713 -0.080661171139 -0.063342255804 -0.098972743426 -0.078471817459 -0.096891902949
          -0.07675339994 -0.090520623308 -0.071482569487 -0.096860886841 -0.076738424494 -0.067716533366
          -0.052769684507 -0.080602030344 -0.063319577488 -0.037752463863 -0.028683999233 -0.053033517762
          -0.040869509681 -0.011303292141 -0.0082921784767 -0.023343536232 -0.017399077056 -1.555255718e-16
          -3.8598134759e-16 -0.0030482820096 -0.0022085794193 -0.017218632305 -2.5470229665e-16 -0.014228876006
          -0.0047043806511 -7.8662550452e-16 -0.0038540233383 -0.055642299511 -0.046678592645 -0.035025947255
          -0.029154130464 -0.096806112409 -0.082355897756 -0.076922942419 -0.064998975816 -0.12675964629
          -0.10890435303 -0.11387449785 -0.097422333309 -0.13749944512 -0.11856274749 -0.1348593856
          -0.11617630657 -0.12656580317 -0.10879822826 -0.13475025203 -0.11611496814 -0.096559951322
          -0.08223382787 -0.11362858343 -0.097291863314 -0.055498231463 -0.046625930229 -0.076712687331
          -0.064904799189 -0.01719207158 -0.014231883127 -0.034951904701 -0.029139669729 -2.5955744067e-16
          -8.037882729e-16 -0.0047038163445 -0.003860694004 -0.02373789384 -4.573308591e-16 -0.020371987873
          -0.0066398415899 -1.4643512085e-15 -0.005656287579 -0.074297433211 -0.064833244496 -0.047522552201
          -0.041098508315 -0.12525680038 -0.11121388663 -0.10109414685 -0.089002614477 -0.16024968703
          -0.14409561839 -0.14542158569 -0.13004147544 -0.1722909966 -0.15567896922 -0.16939114815
          -0.15285625169 -0.15976859495 -0.14377570497 -0.16912806888 -0.15267913557 -0.12458024936
          -0.11078287734 -0.1447885914 -0.12962707714 -0.073804509564 -0.064544833488 -0.10046337686
          -0.088614579856 -0.023582497697 -0.020293995935 -0.047206096269 -0.040926635053 -4.5885192962e-16
          -1.4774081432e-15 -0.0066021763413 -0.005640918848 -0.031453650833 -5.4486854155e-16 -0.02738109832
          -0.0087899057471 -1.7978569564e-15 -0.00753907949 -0.093456380537 -0.083996095852 -0.06161390811
          -0.05445710038 -0.14932417363 -0.13836405177 -0.12366388714 -0.1128929492 -0.1837439704
          -0.17413571513 -0.16961437621 -0.15917517928 -0.19467015678 -0.18604118114 -0.19213779829
          -0.18321818763 -0.1828952792 -0.17346868985 -0.1916837083 -0.1828572014 -0.14803248797
          -0.13738910876 -0.16846164785 -0.15828418709 -0.092387591373 -0.083235843287 -0.12238834143
          -0.11195661643 -0.031053865224 -0.027119121816 -0.060860831106 -0.053942568182 -5.4260848552e-16
          -1.8027854904e-15 -0.008683684829 -0.0074751270696 -0.040999536077 -1.6433932127e-15 -0.036102681745
          -0.012712562077 -4.8673586118e-15 -0.010877247788 -0.10917678732 -0.10213194387 -0.075887326885
          -0.068666869573 -0.15670703929 -0.15645350179 -0.13695749935 -0.13244857484 -0.17810929902
          -0.18639114951 -0.1701308283 -0.1744461728 -0.18330110324 -0.19518808178 -0.18225954742
          -0.1932267429 -0.17711473436 -0.18541135717 -0.18174552415 -0.19271048558 -0.15500311828
          -0.15488529545 -0.16870727262 -0.173085632 -0.1075235507 -0.10074520438 -0.13513614958
          -0.13084707887 -0.040269115136 -0.035537326048 -0.074617807004 -0.067652133796 -1.6076850981e-15
          -4.7850314865e-15 -0.012482591917 -0.010706368227 -0.051830562998 -1.2540687713e-15 -0.046039426595
          -0.015719450888 -4.0602519709e-15 -0.013006702169 -0.10944346758 -0.1131785466 -0.088251504007
          -0.083731643903 -0.11872598528 -0.14611450244 -0.11887780356 -0.13403440785 -0.10717690159
          -0.15392551502 -0.11370564218 -0.15214099637 -0.10044711355 -0.15380741018 -0.10220934309
          -0.15403421133 -0.10679898854 -0.15311552914 -0.10204105931 -0.15362828089 -0.11769685612
          -0.14455038325 -0.11302552584 -0.15091822806 -0.10790825059 -0.11141634369 -0.11748797439
          -0.13223160034 -0.050905078136 -0.045173746582 -0.086819871722 -0.08227148225 -1.2093859545e-15
          -3.9169049853e-15 -0.015416014307 -0.012745926115 -0.060412400754 -1.1852454709e-14 -0.058525603276
          -0.032304359371 -2.9838991996e-14 -0.02556932737 -0.051293086852 -0.091872682497 -0.070400077363
          -0.084269477294 0.024445942629 -0.066409512965 -0.016053616293 -0.084947835934 0.084246875994
          -0.030298991367 0.059174947783 -0.046333817117 0.10497660473 -0.016406893022 0.10006546531
          -0.019800575676 0.083152692458 -0.030607829481 0.09946667383 -0.020000833713 0.023012816998
          -0.066430234045 0.05778325902 -0.046583108987 -0.051750571609 -0.09107742322 -0.017136910036
          -0.084546232048 -0.059986464346 -0.057691788743 -0.070160267932 -0.083228077622 -1.172226956e-14
          -2.9406269569e-14 -0.032009695231 -0.025208428357 0.014307567845 -4.8914335661e-14 -0.046630018093
          -0.019273698844 -3.8054094835e-14 -0.022105323023 0.21493779949 0.031985696 0.093332442407
          -0.039447393099 0.37744824801 0.16908790474 0.31686436241 0.11200630838 0.4516365692
          0.2433732845 0.42043208026 0.21187213178 0.47589469623 0.26901270066 0.47074190223
          0.26326307841 0.44988992278 0.24166580612 0.46989161149 0.26239823758 0.37425215681
          0.16632489654 0.41786059612 0.20948873552 0.21108577664 0.029658079857 0.31315954708
          0.1092235206 0.012748998948 -0.047031380499 0.090244455684 -0.040778385913 -4.8475473974e-14
          -3.695283397e-14 -0.018734011016 -0.021912686554 1 0.5 0.24982517485
          1 -8.3836059629e-14 0.017853296004 1 0.54433792025 1
          0.45953485795 1 0.65471312906 1 0.60726654336 1
          0.70823496254 1 0.68963109407 1 0.72215624134 1
          0.71905167314 1 0.70725215524 1 0.71853231589 1
          0.65259003196 1 0.68811750601 1 0.54140684588 1
          0.6045685759 1 0.2469729655 1 0.4562425455 0.5
          -8.4063696018e-14 1 0.016096041904
        </DataArray>
        <DataArray type="Float64" Name="v" format="ascii" RangeMin="-0.35992346905" RangeMax="0.3629370727">
          -2.1322675434e-16 -3.6481492102e-18 0.0050132426081 9.1573258665e-17 -9.159154365e-16 0.0012287026492
          0.0019375639363 -6.8288096203e-16 0.00019852365023 1.8406282026e-16 0.0093100574652 5.3192497263e-16
          0.0025140232387 0.0076593448519 0.002051549066 2.0715968058e-16 0.0093132748591 8.4233490385e-16
          0.0025663303133 0.0098572560689 0.0027096021534 1.2257155916e-16 0.0056340655871 7.0321735185e-16
          0.0015559293328 0.0078446649638 0.0021770917478 -4.747891246e-19 -5.9614015734e-06 2.5621175759e-16
          -1.4730890533e-06 0.0029392721497 0.00081497999469 -1.2276971857e-16 -0.0056354774457 -2.5894932173e-16
          -0.0015556117595 -0.0029482123138 -0.0008170742552 -2.0626180688e-16 -0.0092998578799 -7.0155198029e-16
          -0.0025615597161 -0.0078372527266 -0.0021740451134 -1.8354622503e-16 -0.0093038118269 -8.3875193553e-16
          -0.0025117707727 -0.0098440736526 -0.0027049061301 2.6779943076e-18 -0.0050269716701 -5.3336494332e-16
          -0.0012327895445 -0.0076643641416 -0.0020530120965 2.1364431771e-16 -9.7517665331e-17 9.1366139065e-16
          6.7777224794e-16 -0.001950729605 -0.00020178723679 0.020458238012 2.9787618418e-15 0.011340896541
          0.010247914989 5.0489975466e-15 0.0051067864523 0.033231900429 0.019662070523 0.028463167916
          0.016470341833 0.032077132054 0.019345628618 0.034376478511 0.020587452398 0.019170180646
          0.011647235579 0.026789192523 0.016232591906 -2.3917977389e-05 -1.0891038323e-05 0.0099697198199
          0.0060690841523 -0.019182545322 -0.011648343612 -0.010007637794 -0.0060850214654 -0.032034239896
          -0.019316804522 -0.026770405737 -0.016216183611 -0.033200185226 -0.019645815775 -0.034328404782
          -0.020558408268 -0.020490696901 -0.011364793479 -0.028464470607 -0.016475821395 -3.001593689e-15
          -5.1006705513e-15 -0.010287226244 -0.0051314169368 0.046369276407 8.6075329156e-15 0.032073687335
          0.025142691376 2.2547279628e-14 0.016846469386 0.069685191887 0.049865014112 0.061540871876
          0.043421589012 0.06488679282 0.047288255102 0.07058145284 0.051035993026 0.038091360108
          0.028030521369 0.053616612582 0.039296880091 -9.1012688655e-05 -4.5588239591e-05 0.019706884196
          0.014544885139 -0.038180682184 -0.028064028983 -0.019863692123 -0.014620201662 -0.064806062286
          -0.047224574893 -0.05361736716 -0.039277742044 -0.069565398793 -0.049800195769 -0.070455900275
          -0.050954944031 -0.04637805384 -0.032103507281 -0.061476920369 -0.043402129062 -8.6471417169e-15
          -2.2671643787e-14 -0.025192720362 -0.016895313027 0.083096321782 1.6697194058e-14 0.063204939988
          0.046619812964 5.0016506732e-14 0.034923060856 0.11832899148 0.09247936761 0.10710836563
          0.082652378334 0.10627099773 0.084619089575 0.11748648712 0.092762822828 0.06097450416
          0.049158757582 0.086686533211 0.069504056248 -0.00027627697458 -0.00016150079945 0.031303521872
          0.025345559656 -0.061312966319 -0.049338550614 -0.03179891456 -0.025630063272 -0.10616375576
          -0.08451783428 -0.0868059778 -0.0695419985 -0.11797810707 -0.092266285289 -0.11720801369
          -0.092569395444 -0.082928716603 -0.063155504768 -0.10680664756 -0.082500193523 -1.6727281014e-14
          -5.0162738613e-14 -0.046594937184 -0.034953302225 0.1312311642 2.814657276e-14 0.10567649027
          0.075808762079 8.8057666e-14 0.05996449721 0.17768697247 0.14676614789 0.16483326218
          0.13445894984 0.152489889 0.12918320308 0.17227492309 0.14417005035 0.084804885758
          0.073078968085 0.12222120379 0.10454451769 -0.00064199565863 -0.00043379495334 0.043075522443
          0.037334648313 -0.085684818289 -0.073643636177 -0.044253606011 -0.038121981678 -0.15243021279
          -0.12908272017 -0.12266045703 -0.1047899862 -0.17689461447 -0.146222862 -0.17176934583
          -0.14378358187 -0.13059533309 -0.10532043293 -0.16400258745 -0.13393577525 -2.8084671871e-14
          -8.8037573292e-14 -0.075511473877 -0.059840739743 0.1933622695 4.3558140815e-14 0.15981481089
          0.11518793149 1.4306170229e-13 0.093763058787 0.24131988655 0.20975875308 0.23333301545
          0.19768513843 0.19366370907 0.17467882865 0.22568535542 0.20016626042 0.10280994132
          0.095187034388 0.15126748791 0.1384114695 -0.0011483642443 -0.00089221274857 0.051420777929
          0.048012642429 -0.10452418776 -0.096466623817 -0.053567557863 -0.049665899116 -0.19386102184
          -0.17471614943 -0.15230418998 -0.13912162098 -0.23993285649 -0.20867830599 -0.22501545305
          -0.19955888924 -0.19177456191 -0.15878437695 -0.23159366522 -0.19645336904 -4.3247327234e-14
          -1.4237917778e-13 -0.11426293122 -0.093216498913 0.26236696707 6.7118132705e-14 0.22854045698
          0.16673414043 2.1385028523e-13 0.13841363748 0.29138856018 0.2695975643 0.29865301734
          0.26814982672 0.20897170752 0.20659505015 0.25701516159 0.24598535671 0.10364992061
          0.10624323913 0.15679619272 0.15848907732 -0.0015204010054 -0.001393825656 0.050861641344
          0.052635186614 -0.10614294363 -0.10842188493 -0.053767286877 -0.055267634853 -0.20975097808
          -0.20706907208 -0.15857658599 -0.15993024726 -0.28969997962 -0.26799317136 -0.25656820112
          -0.24537383637 -0.25963677414 -0.22636470627 -0.29608050188 -0.26594107918 -6.6362114815e-14
          -2.1183384174e-13 -0.16487007382 -0.13705678136 0.34393369345 1.0535237639e-13 0.29792124072
          0.24632987484 3.4235163137e-13 0.19902252964 0.27940380203 0.29989106187 0.33617688693
          0.32260165902 0.16898760672 0.19753316247 0.2215312923 0.25236761928 0.076175591196
          0.094024949343 0.12048454456 0.144619066 -0.0013123614152 -0.0015231720215 0.036268212572
          0.045582480615 -0.078558804358 -0.0966662236 -0.038833044763 -0.048533792133 -0.17041771446
          -0.19870857792 -0.1225249119 -0.14667884161 -0.27843420052 -0.29844497513 -0.22197293654
          -0.25234314884 -0.34016367497 -0.2946167083 -0.33351293402 -0.31984852716 -1.0393743256e-13
          -3.3818776933e-13 -0.24331090433 -0.19660780984 0.25975274051 2.4918161129e-13 0.3629370727
          0.32408994327 5.2476238137e-13 0.28105459293 0.14187332055 0.22504308856 0.18262162931
          0.30780917197 0.06820201637 0.12540582395 0.10303696948 0.16859438953 0.028428241179
          0.052766613468 0.044789831675 0.086374477786 -0.00050729628531 -0.00093005380545 0.013748666258
          0.024741432617 -0.029447198683 -0.054527208871 -0.014770204759 -0.026568651208 -0.069235317193
          -0.12681441718 -0.045821602056 -0.088051024784 -0.14221154977 -0.22483238529 -0.10385116643
          -0.16936839212 -0.25838116529 -0.35992346905 -0.18253662504 -0.30626181964 -2.4714077584e-13
          -5.1798658946e-13 -0.32111820043 -0.27785399669 2.5951792672e-14 1.2988708493e-13 0.09436475624
          6.460963432e-13 1.175454814e-12 0.31178710477 1.4973178295e-14 0.058286358489 -9.3470899328e-15
          0.042498103081 -8.6377000952e-16 0.017707361925 4.0262504318e-14 0.041286234247 1.3693814769e-15
          0.0091156195313 -3.0463712523e-15 0.010338011866 2.7433309834e-17 -0.00011796619998 4.2897023836e-15
          0.0050860415593 -1.3341257915e-15 -0.0093757794106 -4.1507099786e-15 -0.0053509252983 8.8083972722e-16
          -0.018052951561 3.3183449062e-15 -0.01056990537 -1.476276375e-14 -0.058295508506 -4.0253110021e-14
          -0.041660378269 -2.6742813006e-14 -0.094804910075 9.4275448843e-15 -0.042624574287 -1.2835322646e-13
          -1.1659750191e-12 -6.4274897016e-13 -0.31005973283
        </DataArray>
        <DataArray type="Float64" Name="p" format="ascii" RangeMin="-83.70300824" RangeMax="82.977875375">
          -0.31902040647 -0.40998330094 -0.32101152073 -0.22663042676 -0.36450185371 -0.36549741084
          -0.27382097375 -0.27282541661 -0.31916141373 -0.54977893772 -0.38752192765 -0.47988111933
          -0.46865043268 -0.35426672419 -0.41707392176 -0.50957796995 -0.35054264916 -0.52967845383
          -0.43006030956 -0.3690322884 -0.44935537112 -0.29627569716 -0.19904298024 -0.40292683356
          -0.2476593387 -0.2747928147 -0.33885982413 0.021800826981 0.02179222116 -0.13723743509
          0.021796524071 -0.08862537954 -0.11293140732 0.33946811321 0.24230905985 0.18063447009
          0.29088858653 0.13205064051 0.1563425553 0.55219171908 0.39334037274 0.44582991614
          0.47276604591 0.31782471629 0.38182731622 0.59264386668 0.43044227201 0.57241779288
          0.51154306934 0.41189132237 0.49215455762 0.45347587671 0.36443233031 0.52305987169
          0.40895410351 0.39743730116 0.46024858643 0.36246385837 0.26993600777 0.40796986754
          0.31619993307 0.31718416904 0.36257701829 -0.2627071264 -0.055570842962 -0.29185932357
          -0.15913898468 -0.14110063486 -0.21647997921 -0.35209120508 -0.36980656636 -0.30739916574
          -0.33083294496 -0.3174580939 -0.33400037153 -0.33477464949 -0.35190346895 -0.17737838182
          -0.18821068103 -0.24741823786 -0.26110552628 0.02275024563 0.022271233395 -0.077314068095
          -0.082969723817 0.22219959645 0.23225432815 0.12247492104 0.12726278077 0.36109029403
          0.37721533338 0.29164494524 0.30473483077 0.39553030867 0.41298629034 0.37831030135
          0.39510081186 0.30707312576 0.33575272804 0.35130171722 0.37436950919 0.099929709958
          0.18493285886 0.20350141786 0.26034279345 -0.32022736213 -0.0033906578515 -0.29146724426
          -0.16180900999 -0.029480750407 -0.16047399734 -0.44070212018 -0.39639666263 -0.38046474116
          -0.34393195345 -0.39207654719 -0.35476732055 -0.41638933369 -0.37558199159 -0.21566271607
          -0.19652054894 -0.30386963163 -0.27564393474 0.02609268716 0.024421466395 -0.094785014454
          -0.086049541274 0.26628661834 0.2442431074 0.14618965275 0.1343322869 0.43958736033
          0.40033882718 0.35293698934 0.32229096729 0.48663821336 0.44108426102 0.46311278684
          0.4207115441 0.36735882392 0.33721597484 0.42699851864 0.38915011793 0.051711993587
          0.075820851773 0.20953540876 0.20651841331 -0.5632658439 -0.15067943859 -0.44174660302
          -0.35697264125 -0.077035048222 -0.25939082562 -0.70580604428 -0.57325408223 -0.63453594409
          -0.50750034262 -0.59172452451 -0.49190053585 -0.64876528439 -0.53257730904 -0.31754808891
          -0.26660540249 -0.45463630671 -0.37925296917 0.034137417708 0.030115052434 -0.1417053356
          -0.11824517503 0.38245041771 0.32436851803 0.20829391771 0.17724178523 0.64913676077
          0.54436206055 0.51579358924 0.43436528929 0.75771706352 0.62217763844 0.70342691214
          0.58326984949 0.61609216468 0.4917254943 0.6869046141 0.55695156637 0.20656953311
          0.12914076335 0.41133084889 0.31043312882 -1.1402965038 -0.54519200127 -0.85178117384
          -0.84274425252 -0.34793571993 -0.59985844689 -1.2057339546 -0.95576999945 -1.1730152292
          -0.90377558665 -0.95186522495 -0.77179487473 -1.0787995898 -0.86378243709 -0.48895052775
          -0.40324930833 -0.72040787635 -0.58752209153 0.049789156964 0.041963287336 -0.21958068539
          -0.1806430105 0.58179363679 0.48212202725 0.31579139688 0.26204265729 1.0288489503
          0.83899285554 0.80532129355 0.66055744139 1.2682339426 1.012975503 1.1485414464
          0.92598417929 1.1994306061 0.90776138538 1.2338322743 0.96036844421 0.61276639973
          0.40966796642 0.90609850291 0.6587146759 -2.0987568749 -1.5543181673 -1.6195266893
          -1.8265375211 -1.0497550843 -1.3346408868 -2.0878679804 -1.6468009675 -2.0933124276
          -1.6331638284 -1.4869068003 -1.2193860126 -1.7873873904 -1.4330934901 -0.73263014531
          -0.61079033653 -1.1097684728 -0.91508817459 0.074149226255 0.061969191609 -0.32924045953
          -0.27441057246 0.86967609881 0.7257348678 0.47191266253 0.3938520297 1.5947138908
          1.3117814205 1.2321949948 1.0187581442 2.1642777381 1.7162558403 1.8794958144
          1.5140186304 2.1639795216 1.6817050638 2.1641286298 1.6989804521 1.6282997759
          1.1205330878 1.8961396487 1.4011190758 -4.2353600823 -3.0500693147 -3.1670584786
          -3.6427146985 -2.302193741 -2.7346261098 -3.3108363324 -2.6993521564 -3.7730982074
          -2.9332053175 -2.2140646063 -1.8504857033 -2.7624504693 -2.2749189298 -1.0000510146
          -0.86634057997 -1.6070578104 -1.3584131416 0.10159897563 0.08787410094 -0.4492260195
          -0.38923323951 1.1871607481 1.0284184235 0.64437986188 0.5581462622 2.3584985957
          1.9766062432 1.7728296719 1.5025123333 3.3995478611 2.7819127996 2.8790232284
          2.3792595214 4.284910575 3.2244450483 3.8422292181 3.0031789239 3.1166654371
          2.3724826065 3.7007880061 2.7984638274 -6.7861029633 -7.6043262425 -5.5107315228
          -7.1952146029 -5.3271977786 -5.4189646507 -5.323147926 -4.3169921292 -6.0546254446
          -4.913861826 -2.7831570937 -2.49861085 -4.0531525098 -3.4078014896 -1.2271732509
          -1.1136121328 -2.0051651723 -1.8061114914 0.11549680491 0.10854789027 -0.555838223
          -0.50253212125 1.4421096349 1.3146351915 0.77880321991 0.71159154089 2.9446384801
          2.6515685379 2.1933740575 1.9831018647 5.4085838639 4.4040658625 4.176611172
          3.5278172002 6.8076466947 5.5462786349 6.1081152793 4.9751722487 7.611719505
          5.364192471 7.2096830998 5.4552355529 -16.231708831 -15.63404801 -11.508905897
          -15.932878421 -11.619187126 -11.564046512 -5.2273465535 -5.2752472397 -10.729527692
          -8.3920765685 -3.1644540293 -2.9738055615 -4.1959002914 -4.1245264006 -1.0461593743
          -1.1366663126 -2.1053067018 -2.0552359371 0.10581808848 0.1106574467 -0.4701706429
          -0.51300443295 1.2333447485 1.3377271917 0.66958141849 0.7241923192 3.3056724163
          3.1251554482 2.2695085824 2.23144132 5.2632490134 5.3359164387 4.2844607149
          4.2305359434 16.138063455 11.472855075 10.700656234 8.4043857568 15.481328447
          11.546523976 15.809695951 11.509689525 -3.8942320746 -83.70300824 -10.062970453
          -43.798620157 -49.668528125 -29.865749289 -5.9754931575 -5.6014198555 -4.934862616
          -7.8321951542 -1.0852565749 -2.1248553021 -3.5303748662 -3.8631375788 -0.80282336704
          -0.92449137066 -0.94403997097 -1.5246733364 0.085451000517 0.0956345445 -0.35868618326
          -0.41442841308 0.96608248775 1.0997136181 0.52576674414 0.59767408131 1.1695426662
          2.2376075412 1.067812577 1.6686605797 5.978032871 5.6206409422 3.5737877686
          3.9291242417 3.765033189 9.9515483221 4.87153303 7.7860946322 82.977875375
          49.229601911 43.371454282 29.590575117
        </DataArray>
      </PointData>
      <CellData>
        <DataArray type="Int32" Name="libmesh_elem_id" format="ascii" RangeMin="0" RangeMax="99">
          0 1 2 3 4 5
          6 7 8 9 10 11
          12 13 14 15 16 17
          18 19 20 21 22 23
          24 25 26 27 28 29
          30 31 32 33 34 35
          36 37 38 39 40 41
          42 43 44 45 46 47
          48 49 50 51 52 53
          54 55 56 57 58 59
          60 61 62 63 64 65
          66 67 68 69 70 71
          72 73 74 75 76 77
          78 79 80 81 82 83
          84 85 86 87 88 89
          90 91 92 93 94 95
          96 97 98 99
        </DataArray>
        <DataArray type="Int32" Name="subdomain_id" format="ascii" RangeMin="0" RangeMax="0">
          0 0 0 0 0 0
          0 0 0 0 0 0
          0 0 0 0 0 0
          0 0 0 0 0 0
          0 0 0 0 0 0
          0 0 0 0 0 0
          0 0 0 0 0 0
          0 0 0 0 0 0
          0 0 0 0 0 0
          0 0 0 0 0 0
          0 0 0 0 0 0
          0 0 0 0 0 0
          0 0 0 0 0 0
          0 0 0 0 0 0
          0 0 0 0 0 0
          0 0 0 0 0 0
          0 0 0 0
        </DataArray>
        <DataArray type="Int32" Name="processor_id" format="ascii" RangeMin="0" RangeMax="0">
          0 0 0 0 0 0
          0 0 0 0 0 0
          0 0 0 0 0 0
          0 0 0 0 0 0
          0 0 0 0 0 0
          0 0 0 0 0 0
          0 0 0 0 0 0
          0 0 0 0 0 0
          0 0 0 0 0 0
          0 0 0 0 0 0
          0 0 0 0 0 0
          0 0 0 0 0 0
          0 0 0 0 0 0
          0 0 0 0 0 0
          0 0 0 0 0 0
          0 0 0 0 0 0
          0 0 0 0
        </DataArray>
      </CellData>
      <Points>
        <DataArray type="Float64" Name="Points" NumberOfComponents="3" format="ascii" RangeMin="0" RangeMax="1.4142135624">
          0 0 0 0.1 0 0
          0.1 0.1 0 0 0.1 0
          0.05 0 0 0.1 0.05 0
          0.05 0.1 0 0 0.05 0
          0.05 0.05 0 0.2 0 0
          0.2 0.1 0 0.15 0 0
          0.2 0.05 0 0.15 0.1 0
          0.15 0.05 0 0.3 0 0
          0.3 0.1 0 0.25 0 0
          0.3 0.05 0 0.25 0.1 0
          0.25 0.05 0 0.4 0 0
          0.4 0.1 0 0.35 0 0
          0.4 0.05 0 0.35 0.1 0
          0.35 0.05 0 0.5 0 0
          0.5 0.1 0 0.45 0 0
          0.5 0.05 0 0.45 0.1 0
          0.45 0.05 0 0.6 0 0
          0.6 0.1 0 0.55 0 0
          0.6 0.05 0 0.55 0.1 0
          0.55 0.05 0 0.7 0 0
          0.7 0.1 0 0.65 0 0
          0.7 0.05 0 0.65 0.1 0
          0.65 0.05 0 0.8 0 0
          0.8 0.1 0 0.75 0 0
          0.8 0.05 0 0.75 0.1 0
          0.75 0.05 0 0.9 0 0
          0.9 0.1 0 0.85 0 0
          0.9 0.05 0 0.85 0.1 0
          0.85 0.05 0 1 0 0
          1 0.1 0 0.95 0 0
          1 0.05 0 0.95 0.1 0
          0.95 0.05 0 0.1 0.2 0
          0 0.2 0 0.1 0.15 0
          0.05 0.2 0 0 0.15 0
          0.05 0.15 0 0.2 0.2 0
          0.2 0.15 0 0.15 0.2 0
          0.15 0.15 0 0.3 0.2 0
          0.3 0.15 0 0.25 0.2 0
          0.25 0.15 0 0.4 0.2 0
          0.4 0.15 0 0.35 0.2 0
          0.35 0.15 0 0.5 0.2 0
          0.5 0.15 0 0.45 0.2 0
          0.45 0.15 0 0.6 0.2 0
          0.6 0.15 0 0.55 0.2 0
          0.55 0.15 0 0.7 0.2 0
          0.7 0.15 0 0.65 0.2 0
          0.65 0.15 0 0.8 0.2 0
          0.8 0.15 0 0.75 0.2 0
          0.75 0.15 0 0.9 0.2 0
          0.9 0.15 0 0.85 0.2 0
          0.85 0.15 0 1 0.2 0
          1 0.15 0 0.95 0.2 0
          0.95 0.15 0 0.1 0.3 0
          0 0.3 0 0.1 0.25 0
          0.05 0.3 0 0 0.25 0
          0.05 0.25 0 0.2 0.3 0
          0.2 0.25 0 0.15 0.3 0
          0.15 0.25 0 0.3 0.3 0
          0.3 0.25 0 0.25 0.3 0
          0.25 0.25 0 0.4 0.3 0
          0.4 0.25 0 0.35 0.3 0
          0.35 0.25 0 0.5 0.3 0
          0.5 0.25 0 0.45 0.3 0
          0.45 0.25 0 0.6 0.3 0
          0.6 0.25 0 0.55 0.3 0
          0.55 0.25 0 0.7 0.3 0
          0.7 0.25 0 0.65 0.3 0
          0.65 0.25 0 0.8 0.3 0
          0.8 0.25 0 0.75 0.3 0
          0.75 0.25 0 0.9 0.3 0
          0.9 0.25 0 0.85 0.3 0
          0.85 0.25 0 1 0.3 0
          1 0.25 0 0.95 0.3 0
          0.95 0.25 0 0.1 0.4 0
          0 0.4 0 0.1 0.35 0
          0.05 0.4 0 0 0.35 0
          0.05 0.35 0 0.2 0.4 0
          0.2 0.35 0 0.15 0.4 0
          0.15 0.35 0 0.3 0.4 0
          0.3 0.35 0 0.25 0.4 0
          0.25 0.35 0 0.4 0.4 0
          0.4 0.35 0 0.35 0.4 0
          0.35 0.35 0 0.5 0.4 0
          0.5 0.35 0 0.45 0.4 0
          0.45 0.35 0 0.6 0.4 0
          0.6 0.35 0 0.55 0.4 0
          0.55 0.35 0 0.7 0.4 0
          0.7 0.35 0 0.65 0.4 0
          0.65 0.35 0 0.8 0.4 0
          0.8 0.35 0 0.75 0.4 0
          0.75 0.35 0 0.9 0.4 0
          0.9 0.35 0 0.85 0.4 0
          0.85 0.35 0 1 0.4 0
          1 0.35 0 0.95 0.4 0
          0.95 0.35 0 0.1 0.5 0
          0 0.5 0 0.1 0.45 0
          0.05 0.5 0 0 0.45 0
          0.05 0.45 0 0.2 0.5 0
          0.2 0.45 0 0.15 0.5 0
          0.15 0.45 0 0.3 0.5 0
          0.3 0.45 0 0.25 0.5 0
          0.25 0.45 0 0.4 0.5 0
          0.4 0.45 0 0.35 0.5 0
          0.35 0.45 0 0.5 0.5 0
          0.5 0.45 0 0.45 0.5 0
          0.45 0.45 0 0.6 0.5 0
          0.6 0.45 0 0.55 0.5 0
          0.55 0.45 0 0.7 0.5 0
          0.7 0.45 0 0.65 0.5 0
          0.65 0.45 0 0.8 0.5 0
          0.8 0.45 0 0.75 0.5 0
          0.75 0.45 0 0.9 0.5 0
          0.9 0.45 0 0.85 0.5 0
          0.85 0.45 0 1 0.5 0
          1 0.45 0 0.95 0.5 0
          0.95 0.45 0 0.1 0.6 0
          0 0.6 0 0.1 0.55 0
          0.05 0.6 0 0 0.55 0
          0.05 0.55 0 0.2 0.6 0
          0.2 0.55 0 0.15 0.6 0
          0.15 0.55 0 0.3 0.6 0
          0.3 0.55 0 0.25 0.6 0
          0.25 0.55 0 0.4 0.6 0
          0.4 0.55 0 0.35 0.6 0
          0.35 0.55 0 0.5 0.6 0
          0.5 0.55 0 0.45 0.6 0
          0.45 0.55 0 0.6 0.6 0
          0.6 0.55 0 0.55 0.6 0
          0.55 0.55 0 0.7 0.6 0
          0.7 0.55 0 0.65 0.6 0
          0.65 0.55 0 0.8 0.6 0
          0.8 0.55 0 0.75 0.6 0
          0.75 0.55 0 0.9 0.6 0
          0.9 0.55 0 0.85 0.6 0
          0.85 0.55 0 1 0.6 0
          1 0.55 0 0.95 0.6 0
          0.95 0.55 0 0.1 0.7 0
          0 0.7 0 0.1 0.65 0
          0.05 0.7 0 0 0.65 0
          0.05 0.65 0 0.2 0.7 0
          0.2 0.65 0 0.15 0.7 0
          0.15 0.65 0 0.3 0.7 0
          0.3 0.65 0 0.25 0.7 0
          0.25 0.65 0 0.4 0.7 0
          0.4 0.65 0 0.35 0.7 0
          0.35 0.65 0 0.5 0.7 0
          0.5 0.65 0 0.45 0.7 0
          0.45 0.65 0 0.6 0.7 0
          0.6 0.65 0 0.55 0.7 0
          0.55 0.65 0 0.7 0.7 0
          0.7 0.65 0 0.65 0.7 0
          0.65 0.65 0 0.8 0.7 0
          0.8 0.65 0 0.75 0.7 0
          0.75 0.65 0 0.9 0.7 0
          0.9 0.65 0 0.85 0.7 0
          0.85 0.65 0 1 0.7 0
          1 0.65 0 0.95 0.7 0
          0.95 0.65 0 0.1 0.8 0
          0 0.8 0 0.1 0.75 0
          0.05 0.8 0 0 0.75 0
          0.05 0.75 0 0.2 0.8 0
          0.2 0.75 0 0.15 0.8 0
          0.15 0.75 0 0.3 0.8 0
          0.3 0.75 0 0.25 0.8 0
          0.25 0.75 0 0.4 0.8 0
          0.4 0.75 0 0.35 0.8 0
          0.35 0.75 0 0.5 0.8 0
          0.5 0.75 0 0.45 0.8 0
          0.45 0.75 0 0.6 0.8 0
          0.6 0.75 0 0.55 0.8 0
          0.55 0.75 0 0.7 0.8 0
          0.7 0.75 0 0.65 0.8 0
          0.65 0.75 0 0.8 0.8 0
          0.8 0.75 0 0.75 0.8 0
          0.75 0.75 0 0.9 0.8 0
          0.9 0.75 0 0.85 0.8 0
          0.85 0.75 0 1 0.8 0
          1 0.75 0 0.95 0.8 0
          0.95 0.75 0 0.1 0.9 0
          0 0.9 0 0.1 0.85 0
          0.05 0.9 0 0 0.85 0
          0.05 0.85 0 0.2 0.9 0