<?xml version="1.0"?>
<VTKFile type="UnstructuredGrid" version="0.1" byte_order="LittleEndian" compressor="vtkZLibDataCompressor">
  <UnstructuredGrid>
    <Piece NumberOfPoints="441" NumberOfCells="100">
      <PointData>
        <DataArray type="Float64" Name="u" format="ascii" RangeMin="-0.19413324321" RangeMax="1">
          1.9268326965e-16 -1.7824021583e-16 -0.004678833166 1.6532737764e-17 5.6079795071e-16 -0.0018412263111
          -0.0011562974233 8.2276899851e-16 -0.00020106651228 -2.7423723424e-15 -0.017450855049 -4.8666796617e-15
          -0.0086754718307 -0.010224012105 -0.004590453922 -6.4239005016e-15 -0.033251018898 -1.8401174213e-14
          -0.017728872994 -0.025399554383 -0.013212857625 -9.3266063147e-15 -0.045656417408 -3.1949988507e-14
          -0.024911860478 -0.040248671661 -0.021803165103 -1.0412137997e-14 -0.050284211451 -4.0142959912e-14
          -0.027601150326 -0.049155236222 -0.026986501178 -9.3213208533e-15 -0.045639896461 -4.0129574596e-14
          -0.02490197774 -0.049144481037 -0.026979711248 -6.4215892928e-15 -0.033241827872 -3.1930311264e-14
          -0.017724639229 -0.040231849713 -0.021793251469 -2.7466234606e-15 -0.017461308288 -1.8406396247e-14
          -0.0086837935207 -0.025400714002 -0.01321562936 -1.8196762338e-16 -0.0046904605879 -4.8876867931e-15
          -0.0018490482266 -0.010239266801 -0.0046016086385 1.9274180069e-16 1.507457743e-17 5.5619602911e-16
          8.1944458268e-16 -0.0011612167021 -0.00020398546808 -0.010261403668 -1.4296777027e-16 -0.0075336165268
          -0.0027680771234 -3.7028303048e-16 -0.0020112788213 -0.034175844939 -0.025921838007 -0.021160742497
          -0.015762365692 -0.061094957914 -0.047470233337 -0.047931773796 -0.036847486188 -0.081422189311
          -0.064082603503 -0.072605886186 -0.056855107377 -0.088877609756 -0.070236007192 -0.0870372737
          -0.06872367419 -0.081364775466 -0.064052940429 -0.087003424964 -0.06870532799 -0.061034822316
          -0.047445892872 -0.072537485173 -0.056822057006 -0.034158823526 -0.025926204843 -0.047890457393
          -0.036837048467 -0.010269859758 -0.0075461540307 -0.021163864417 -0.015776617923 -1.4546660509e-16
          -3.7815892505e-16 -0.002773607057 -0.0020171360206 -0.015855729773 -2.3482393911e-16 -0.012986779065
          -0.0043310058524 -7.2280995226e-16 -0.0035165591184 -0.051127476612 -0.042485610368 -0.032220152606
          -0.026573537505 -0.088710855239 -0.074722254407 -0.070588556896 -0.059067599662 -0.11589696349
          -0.098565564952 -0.10422360674 -0.088272329485 -0.12560360766 -0.10720347847 -0.12322504025
          -0.10507626067 -0.1157085206 -0.098457311069 -0.12311940672 -0.10501434788 -0.088468897482
          -0.074593212465 -0.10398402997 -0.088138038249 -0.050981170844 -0.042421829183 -0.070379696695
          -0.05896395923 -0.01582531667 -0.012982751561 -0.032141461193 -0.026548357372 -2.3891204488e-16
          -7.370677663e-16 -0.004328441085 -0.0035204060366 -0.022477931896 -4.3651586539e-16 -0.018997565245
          -0.0062902523832 -1.3756947794e-15 -0.0052752565829 -0.07022103772 -0.060343331763 -0.044958006493
          -0.038288720807 -0.11809488104 -0.10325306868 -0.095436431487 -0.082740951418 -0.15076789144
          -0.13348998693 -0.13694881845 -0.12059015266 -0.16196349519 -0.14409667856 -0.15927422208
          -0.14151959013 -0.15031576843 -0.13318625577 -0.15902715105 -0.14135173436 -0.11745985435
          -0.10284296099 -0.13635472852 -0.12019686268 -0.069759135947 -0.060067015225 -0.09484512085
          -0.082371083089 -0.022332575793 -0.018921455489 -0.044661553921 -0.038122570464 -4.3777675504e-16
          -1.3865067606e-15 -0.0062548060511 -0.0052595537302 -0.030798612144 -5.3244882636e-16 -0.026360885178
          -0.0086052621939 -1.7238797892e-15 -0.0072524346159 -0.091394289358 -0.080734683958 -0.060297668549
          -0.052392997762 -0.14579214875 -0.13269055203 -0.12083959539 -0.10839015954 -0.17915466417
          -0.16667645773 -0.16547907586 -0.15248936436 -0.18971748692 -0.17794285909 -0.18727035444
          -0.17527629411 -0.17835738121 -0.1660511365 -0.1868437961 -0.17493793148 -0.14458227596
          -0.13177893545 -0.16439808288 -0.15165548914 -0.090398695378 -0.080027138651 -0.11964781988
          -0.10751663802 -0.030429361305 -0.026118968409 -0.059598751835 -0.051915636504 -5.3099035723e-16
          -1.7296089069e-15 -0.0085079160748 -0.0071937828664 -0.041346156614 -1.6482800413e-15 -0.035914296124
          -0.012806087457 -4.8465214672e-15 -0.01082023718 -0.11034914456 -0.1015874747 -0.0766068654
          -0.068303217463 -0.15886855685 -0.15560260214 -0.13862524384 -0.13173627387 -0.18107931514
          -0.18536955918 -0.17274087161 -0.17349135241 -0.18659762443 -0.19413324321 -0.18546719324
          -0.19217315308 -0.18013276059 -0.18444430302 -0.18497830914 -0.19168579733 -0.15725093691
          -0.15412576983 -0.17138849949 -0.17220871814 -0.10878688506 -0.10028854329 -0.13689954196
          -0.13023157346 -0.040659849305 -0.035388491932 -0.075410250288 -0.067355941024 -1.6153020669e-15
          -4.7716812312e-15 -0.012590793789 -0.010661978922 -0.053203483119 -1.2814217904e-15 -0.04693193378
          -0.016102596139 -4.127926824e-15 -0.013255181436 -0.11389734506 -0.1160924675 -0.091044929678
          -0.085552680065 -0.12663780879 -0.15132303439 -0.12509054866 -0.13811246262 -0.11775836543
          -0.16092562148 -0.12311745522 -0.15835325401 -0.11202633115 -0.16149068885 -0.1135364223
          -0.16154092315 -0.11738147801 -0.16014544001 -0.11336834176 -0.16115034631 -0.12562778972
          -0.14982100271 -0.12244770274 -0.15717892027 -0.11240520426 -0.114407169 -0.12373430335
          -0.13638427779 -0.052308314243 -0.046107987312 -0.089655804696 -0.084158404251 -1.2390014899e-15
          -3.9949070445e-15 -0.015810076886 -0.013008559493 -0.062220547092 -1.1886487486e-14 -0.060232937887
          -0.032803810626 -2.9973745311e-14 -0.026046894385 -0.057241763037 -0.097417717458 -0.074105829258
          -0.087745729401 0.013781425736 -0.076269453015 -0.024394523599 -0.092686195974 0.069936809414
          -0.043483709039 0.046459457069 -0.058063805719 0.089325744007 -0.030821389068 0.084743977745
          -0.033909223484 0.068905828436 -0.043759538602 0.084177917714 -0.034091996834 0.012441684157
          -0.076252532242 0.045148421815 -0.058276190459 -0.057631999102 -0.096613825132 -0.025392725878
          -0.092260907369 -0.061776963346 -0.059408201341 -0.073822032194 -0.086706425577 -1.175608286e-14
          -2.9547274747e-14 -0.032504948645 -0.02569145793 0.013162351848 -4.8918666409e-14 -0.048258092839
          -0.019568693531 -3.8179843179e-14 -0.0225589282 0.21074950107 0.026481668515 0.090851352975
          -0.042822518891 0.36953848598 0.1590450373 0.31080631414 0.10420994338 0.44079761945
          0.22979197577 0.41087389184 0.19983801594 0.46397722337 0.25413264948 0.45908508442
          0.24869846869 0.43911593706 0.22816233291 0.45826603416 0.24787271901 0.36645751068
          0.15640782289 0.40839399178 0.1975591305 0.20702550705 0.024271587152 0.3072268578
          0.10155536943 0.011661905413 -0.048615515767 0.087867902886 -0.044067742052 -4.8470687655e-14
          -3.7058083058e-14 -0.019005193999 -0.022348878729 1 0.5 0.24934415132
          1 -8.3639559778e-14 0.017792216827 1 0.5421429969 1
          0.45835100138 1 0.65028916442 1 0.60395377172 1
          0.70204622941 1 0.6842107521 1 0.71531129149 1
          0.7123587664 1 0.70109205726 1 0.71185224737 1
          0.64822782858 1 0.68273958431 1 0.53929257712 1
          0.60132828633 1 0.24653708904 1 0.4551326188 0.5
          -8.3845408205e-14 1 0.016053460047
        </DataArray>
        <DataArray type="Float64" Name="v" format="ascii" RangeMin="-0.35755905041" RangeMax="0.36047515879">
          -1.9297406634e-16 7.70534229e-18 0.0046043602517 1.2146650276e-16 -7.9543815385e-16 0.0011394034531
          0.0018254948856 -5.697316985e-16 0.00020499936863 1.724996229e-16 0.0083765226977 5.1685324371e-16
          0.0022662989625 0.0069490871737 0.0018691169679 1.8937080002e-16 0.0082838442452 7.7560656263e-16
          0.0022843663453 0.0088118667945 0.0024245302771 1.1087104419e-16 0.0049766931177 6.3782253846e-16
          0.0013746968975 0.0069495049703 0.0019292040153 -4.3118729925e-19 -7.087544122e-06 2.3072986779e-16
          -1.8062919291e-06 0.0025907738657 0.00071826150653 -1.1109277721e-16 -0.0049809302867 -2.3329803412e-16
          -0.0013752870997 -0.0026021628603 -0.00072109669497 -1.8861898507e-16 -0.0082727771549 -6.3656387884e-16
          -0.0022804526722 -0.0069450482808 -0.0019271684017 -1.7198938454e-16 -0.0083686548761 -7.7244655063e-16
          -0.002263699047 -0.0087994178448 -0.0024202362696 -8.4479663414e-18 -0.0046131297028 -5.1762472159e-16
          -0.0011420766247 -0.0069501226227 -0.0018694343197 1.9321076633e-16 -1.2614729797e-16 7.932849387e-16
          5.6538956244e-16 -0.0018350995943 -0.00020747262616 0.018624506389 2.7724079146e-15 0.010356085489
          0.0094123436751 4.8251760425e-15 0.0047339752077 0.029864391343 0.017666063354 0.025730086355
          0.014901955172 0.028555580291 0.017201552772 0.03073516811 0.018391695013 0.016958683453
          0.010288444295 0.023763097812 0.014379116369 -2.8197817919e-05 -1.378279318e-05 0.0088018092272
          0.0053499825153 -0.016980703995 -0.010296130119 -0.0088486642512 -0.0053719859967 -0.028520182947
          -0.017177854118 -0.023753869744 -0.014369240918 -0.02982838492 -0.017646973667 -0.03068973216
          -0.018364459448 -0.01864173266 -0.010370325712 -0.025719967814 -0.014899988046 -2.7895797655e-15
          -4.8642795638e-15 -0.0094394552672 -0.0047513627114 0.042276189211 7.9143251826e-15 0.029184064144
          0.023030423928 2.0795726648e-14 0.015424107825 0.062950089232 0.044886890496 0.055845790229
          0.039287032595 0.058130017343 0.042197505317 0.063481599191 0.045727415502 0.033919681279
          0.024861158995 0.0478712881 0.034946250694 -9.5605731246e-05 -5.0998144372e-05 0.017513423521
          0.012874576206 -0.034021601018 -0.024907287055 -0.01768040215 -0.012961277809 -0.058062673973
          -0.042144582249 -0.04788640529 -0.034940037756 -0.062827922002 -0.04481790062 -0.06336374727
          -0.045651196357 -0.04226186483 -0.029193853511 -0.055767277392 -0.039253552308 -7.9430566968e-15
          -2.0887131579e-14 -0.023059667869 -0.015456061094 0.07655423146 1.5449619587e-14 0.057860334529
          0.043085972328 4.6133863187e-14 0.032088540736 0.10813589494 0.083959400061 0.098291559011
          0.075353816754 0.096321688494 0.076201199425 0.10691206722 0.083861876055 0.0549156578
          0.043999569704 0.078294590425 0.062377476115 -0.00027151084954 -0.00016291820795 0.028132850325
          0.022639261821 -0.05525476912 -0.044188363606 -0.028621429223 -0.022928293213 -0.096231136043
          -0.076115511129 -0.078423685622 -0.062429015804 -0.10779605505 -0.083748776052 -0.10665123696
          -0.083680430917 -0.076370832199 -0.05778845577 -0.097987676669 -0.07519045816 -1.5467247829e-14
          -4.6231549545e-14 -0.043041376092 -0.03209636267 0.12290413466 2.6477353121e-14 0.09809958439
          0.071218875298 8.2160358193e-14 0.055818467055 0.16506444647 0.13515431577 0.15378317623
          0.12434273971 0.14037052278 0.11795629861 0.15930094905 0.13218861135 0.07749794139
          0.06627970334 0.1120554137 0.095104260104 -0.00061495319095 -0.00041878346745 0.039270290717
          0.033785434594 -0.078344455065 -0.066829566501 -0.040399670659 -0.034546746809 -0.14032207283
          -0.11787021032 -0.11248276211 -0.095349796532 -0.16430992618 -0.13463324501 -0.15882484149
          -0.13182494462 -0.12228614875 -0.097740421337 -0.15298547446 -0.12383142047 -2.6411049505e-14
          -8.2101397237e-14 -0.070923178159 -0.055681877668 0.18473798827 4.1804855286e-14 0.15110705365
          0.11040777094 1.3609215262e-13 0.088934399754 0.22836681865 0.19665387841 0.22194365464
          0.18617498678 0.1813212658 0.16215925496 0.21242459417 0.18673293747 0.095416306898
          0.087667058392 0.14094815681 0.12793038206 -0.0010932290097 -0.00084989511296 0.047588851108
          0.044106484099 -0.097048864273 -0.088887496643 -0.049632677123 -0.04568168516 -0.18151034122
          -0.16219784108 -0.14193613598 -0.12860936643 -0.22704598342 -0.19562509831 -0.21178729156
          -0.18615668609 -0.18322670613 -0.15012066402 -0.22028755585 -0.18499960207 -4.1509938928e-14
          -1.3542738694e-13 -0.10952828489 -0.088408033741 0.25533350498 6.5730511684e-14 0.22047440946
          0.16288259846 2.0742872438e-13 0.13394807166 0.28070166997 0.25745758297 0.28929423377
          0.25748144985 0.19877541264 0.19503461101 0.24605860035 0.23355795588 0.097558681522
          0.099331251679 0.14827924419 0.14883126465 -0.0014505212953 -0.0013277552978 0.047717744593
          0.049061034307 -0.099937026854 -0.10140638028 -0.050489864564 -0.051568612888 -0.19951725503
          -0.19548492259 -0.14997721525 -0.150203527 -0.27908724493 -0.25592559469 -0.24562940659
          -0.23297261516 -0.25273035819 -0.21840386355 -0.2868377069 -0.25537579042 -6.501610177e-14
          -2.0552501927e-13 -0.16111098649 -0.132661496 0.33989094352 1.0468376864e-13 0.29227981024
          0.24424206705 3.3815082758e-13 0.19598625829 0.27296746016 0.29116777719 0.33062944791
          0.31501015098 0.16277306161 0.18917166844 0.21487752711 0.24339557207 0.072458010031
          0.089028638729 0.11528575413 0.1376313587 -0.0012599438696 -0.0014586543205 0.034352948522
          0.043006785948 -0.074745129305 -0.091559148192 -0.036814867841 -0.045833457325 -0.1641489471
          -0.19030078421 -0.11724503928 -0.13960621742 -0.27203409837 -0.28978539448 -0.21530496273
          -0.24337615754 -0.33624614626 -0.28911160258 -0.32805683052 -0.31237174247 -1.0332004816e-13
          -3.3418531869e-13 -0.24132632262 -0.1936782066 0.2585959806 2.4912272002e-13 0.36047515879
          0.32360693957 5.2350746796e-13 0.27989270068 0.13983177337 0.22092892081 0.18090928793
          0.30431678965 0.066191750286 0.1213946284 0.10089685725 0.16431148784 0.027220091599
          0.050361082983 0.043101328425 0.08301314775 -0.0004925055621 -0.00089797465652 0.013124384685
          0.023500464781 -0.028208286009 -0.05205936838 -0.014115751566 -0.025263811612 -0.067199714359
          -0.1227606566 -0.044103188372 -0.084632577697 -0.14017699656 -0.22073897455 -0.1016978611
          -0.16507036249 -0.25727538585 -0.35755905041 -0.18085515996 -0.30283269283 -2.4710845779e-13
          -5.1690406438e-13 -0.32068544554 -0.27678004726 2.5950384706e-14 1.2993568394e-13 0.094067044467
          6.4629295304e-13 1.1755784267e-12 0.31172651976 1.494021423e-14 0.057721250042 -9.4575592724e-15
          0.04202291752 -9.0227261991e-16 0.017140999736 4.0108579035e-14 0.040685376413 1.3461003386e-15
          0.0087747376811 -3.1799844012e-15 0.0098589283738 2.5120777542e-17 -0.00011546949642 4.2358076956e-15
          0.0049084288353 -1.313037801e-15 -0.0090270560703 -4.1106335124e-15 -0.005167053296 9.1852778745e-16
          -0.017477790873 3.4452103233e-15 -0.010082612939 -1.4727553774e-14 -0.057727415719 -4.0093688877e-14
          -0.041050573244 -2.6748401488e-14 -0.094524075237 9.5287490477e-15 -0.04215785904 -1.2840250023e-13
          -1.1661376235e-12 -6.4297083779e-13 -0.31001637092
        </DataArray>
        <DataArray type="Float64" Name="p" format="ascii" RangeMin="-83.721692257" RangeMax="83.005850308">
          -0.3333200999 -0.41531697441 -0.33520176537 -0.2499016529 -0.37431853715 -0.37525936989
          -0.29255170914 -0.2916108764 -0.33343512315 -0.53350335999 -0.38890786486 -0.4744101672
          -0.46120561243 -0.36205481512 -0.41823249116 -0.48396529596 -0.34386940831 -0.50873432798
          -0.41391735214 -0.36638863659 -0.43756148228 -0.27703655244 -0.19192868916 -0.3805009242
          -0.2344826208 -0.26789904874 -0.32419998647 0.024232985387 0.024186648932 -0.12640178353
          0.02420981716 -0.083871020116 -0.10513640182 0.32512835687 0.2400247772 0.17468067113
          0.28257656704 0.13210571307 0.1533931921 0.53149239049 0.3915431414 0.42831037368
          0.46151776595 0.3157839593 0.37204716649 0.58116230299 0.4366552232 0.55632734674
          0.5089087631 0.4140991823 0.48521326452 0.4635129104 0.38337694059 0.5223376067
          0.4234449255 0.4100160819 0.4661768443 0.38151648459 0.29803193394 0.4225146975
          0.33977420927 0.34070443727 0.38160956738 -0.28929660103 -0.10213234335 -0.3122491832
          -0.19571447219 -0.17601699812 -0.24413309066 -0.36457473952 -0.37674130219 -0.32693567028
          -0.3444952427 -0.32087905426 -0.33237423129 -0.34272689689 -0.35455776674 -0.17656258737
          -0.18424563827 -0.24872082081 -0.25830993478 0.024933506271 0.024560077602 -0.075814540548
          -0.079842780332 0.22586436577 0.23294457148 0.12539893602 0.12875232454 0.36918616757
          0.38036465449 0.29752526667 0.30665461299 0.41272245934 0.42468884127 0.39095431346
          0.40252674788 0.33826262187 0.36081978123 0.3754925406 0.39275431125 0.1511890263
          0.22461048012 0.24472582408 0.29271513068 -0.35474106135 -0.063745783159 -0.32201883119
          -0.20924342226 -0.082939063253 -0.20247894722 -0.45952104303 -0.41204789128 -0.40713105219
          -0.36703336124 -0.40103030669 -0.36095468048 -0.43027567486 -0.38650128588 -0.21850731475
          -0.19753495106 -0.30976881072 -0.27924481577 0.027636046628 0.02628477645 -0.09543563406
          -0.085625087304 0.27247404795 0.24916920686 0.15005504729 0.13772699166 0.45239994753
          0.41079305755 0.36243699774 0.32998113221 0.50961237557 0.46116741746 0.48100616155
          0.4359802375 0.40593994152 0.37210128169 0.45777615855 0.41663434957 0.11611826337
          0.13365364483 0.26102910244 0.25287746326 -0.59686531085 -0.20814606482 -0.4758031861
          -0.40250568784 -0.13594592399 -0.30587455505 -0.72578098102 -0.59265101203 -0.66132314594
          -0.53422709907 -0.60304945274 -0.50203987972 -0.66441521688 -0.54734544587 -0.32271720515
          -0.27061225995 -0.46288332894 -0.38632606983 0.034419210674 0.031027628651 -0.14414899724
          -0.11979231565 0.3886683517 0.33057119983 0.21154378119 0.18079941424 0.66257713383
          0.55748854068 0.52562274276 0.44402987025 0.78064185021 0.64512711289 0.72160949202
          0.60130782678 0.65272175115 0.52933084633 0.71668180068 0.58722897961 0.266835112
          0.19147668768 0.45977843157 0.36040376701 -1.164303278 -0.58171691613 -0.88058429445
          -0.87301009708 -0.39493149047 -0.63775789246 -1.2227906213 -0.97428580115 -1.1935469497
          -0.9274350478 -0.96375073945 -0.7834000961 -1.0932706804 -0.87884294862 -0.49595044256
          -0.40933382385 -0.729850591 -0.59636695997 0.048312267428 0.041365739051 -0.22381908757
          -0.1839840424 0.58662832725 0.48764833947 0.31747029734 0.26450703926 1.0403740778
          0.85147560581 0.81350120252 0.66956197264 1.2865273565 1.0335846033 1.1634507171
          0.94253010457 1.2252066648 0.93896420797 1.2558670106 0.98627440565 0.65050538985
          0.45867025092 0.93785602732 0.69881722945 -2.1091077737 -1.5583889087 -1.6367055259
          -1.8337483412 -1.0700529124 -1.3533792192 -2.1007195499 -1.6617550856 -2.1049136618
          -1.6492303057 -1.4991200552 -1.2314353973 -1.7999198026 -1.4465952415 -0.74142782801
          -0.61868913528 -1.1202739416 -0.92506226631 0.071099592751 0.059705930089 -0.33516411763
          -0.2794916026 0.87351421347 0.73007127036 0.47230690311 0.39488860022 1.6045484004
          1.3224612391 1.2390313069 1.0262662547 2.1770963738 1.7318118651 1.8908223871
          1.5271365521 2.1752455801 1.7002261225 2.176170977 1.7160189938 1.6327496106
          1.1416275002 1.9039975954 1.4209268113 -4.2358115518 -3.0256185252 -3.1724596628
          -3.6307150385 -2.2920037169 -2.7322316899 -3.3223094729 -2.7115145114 -3.7790605124
          -2.9419870871 -2.2283035187 -1.863711787 -2.7753064958 -2.2876131492 -1.0110593126
          -0.87624357028 -1.6196814156 -1.3699776786 0.098190252057 0.084644922404 -0.45643453025
          -0.39579932394 1.192886395 1.0332003042 0.64553832351 0.55892261331 2.3708352379
          1.9876918191 1.7818608164 1.5104460617 3.4116858813 2.7943911276 2.8912605596
          2.3910414733 4.2871531771 3.2311993786 3.8494195292 3.0127952531 3.0935694368
          2.3631595237 3.690361307 2.7971794512 -6.7889429199 -7.5733528633 -5.5123772359
          -7.1811478916 -5.2994856943 -5.4059314651 -5.3403582023 -4.3313338376 -6.0646505611
          -4.9218555367 -2.8042839569 -2.5162937378 -4.0723210796 -3.4238137877 -1.2424129961
          -1.1267361543 -2.0233484765 -1.8215149461 0.11331060006 0.10575042606 -0.564551198
          -0.51049286413 1.4548473458 1.3238668704 0.78407897293 0.71480864822 2.967543794
          2.6691895159 2.2111955699 1.9965281932 5.4306721459 4.4211790136 4.1991079699
          3.5451842648 6.8151261553 5.5511396662 6.1228991506 4.9861593399 7.5857980284
          5.3396837326 7.2004620919 5.4454116994 -16.250300261 -15.63207473 -11.519621591
          -15.941187496 -11.602713797 -11.561167694 -5.2625904766 -5.3014743394 -10.756445369
          -8.410547965 -3.2032557664 -3.0037698616 -4.2329231215 -4.1526221005 -1.0714523637
          -1.1569326799 -2.137354065 -2.0803512708 0.10538348034 0.1093470402 -0.48303444166
          -0.52379281983 1.259621679 1.3572345124 0.68250257965 0.73329077629 3.3493992795
          3.1584715367 2.3045104792 2.2578530246 5.3073413812 5.3690067635 4.3283703303
          4.2637391501 16.165660503 11.490393329 10.736500942 8.4297000463 15.487965051
          11.53688154 15.826812777 11.513637434 -3.9342511738 -83.721692257 -10.092275718
          -43.827971715 -49.676883493 -29.884579605 -6.0501084735 -5.656349475 -4.9921798236
          -7.8743125963 -1.1614695759 -2.1823626711 -3.6057890247 -3.9193560731 -0.85065850917
          -0.96105543641 -1.0060640425 -1.5717090538 0.085877465324 0.095630472832 -0.38239052193
          -0.43271248179 1.0161175909 1.1378696349 0.55099752812 0.61675005389 1.2517955959
          2.3005974377 1.1339565934 1.7192335363 6.0610433704 5.6841923758 3.6564194831
          3.9923949067 3.8142233016 9.9899419022 4.937633336 7.837067139 83.005850308
          49.246907679 43.410036805 29.618424791
        </DataArray>
      </PointData>
      <CellData>
        <DataArray type="Int32" Name="libmesh_elem_id" format="ascii" RangeMin="0" RangeMax="99">
          0 1 2 3 4 5
          6 7 8 9 10 11
          12 13 14 15 16 17
          18 19 20 21 22 23
          24 25 26 27 28 29
          30 31 32 33 34 35
          36 37 38 39 40 41
          42 43 44 45 46 47
          48 49 50 51 52 53
          54 55 56 57 58 59
          60 61 62 63 64 65
          66 67 68 69 70 71
          72 73 74 75 76 77
          78 79 80 81 82 83
          84 85 86 87 88 89
          90 91 92 93 94 95
          96 97 98 99
        </DataArray>
        <DataArray type="Int32" Name="subdomain_id" format="ascii" RangeMin="0" RangeMax="0">
          0 0 0 0 0 0
          0 0 0 0 0 0
          0 0 0 0 0 0
          0 0 0 0 0 0
          0 0 0 0 0 0
          0 0 0 0 0 0
          0 0 0 0 0 0
          0 0 0 0 0 0
          0 0 0 0 0 0
          0 0 0 0 0 0
          0 0 0 0 0 0
          0 0 0 0 0 0
          0 0 0 0 0 0
          0 0 0 0 0 0
          0 0 0 0 0 0
          0 0 0 0 0 0
          0 0 0 0
        </DataArray>
        <DataArray type="Int32" Name="processor_id" format="ascii" RangeMin="0" RangeMax="0">
          0 0 0 0 0 0
          0 0 0 0 0 0
          0 0 0 0 0 0
          0 0 0 0 0 0
          0 0 0 0 0 0
          0 0 0 0 0 0
          0 0 0 0 0 0
          0 0 0 0 0 0
          0 0 0 0 0 0
          0 0 0 0 0 0
          0 0 0 0 0 0
          0 0 0 0 0 0
          0 0 0 0 0 0
          0 0 0 0 0 0
          0 0 0 0 0 0
          0 0 0 0 0 0
          0 0 0 0
        </DataArray>
      </CellData>
      <Points>
        <DataArray type="Float64" Name="Points" NumberOfComponents="3" format="ascii" RangeMin="0" RangeMax="1.4142135624">
          0 0 0 0.1 0 0
          0.1 0.1 0 0 0.1 0
          0.05 0 0 0.1 0.05 0
          0.05 0.1 0 0 0.05 0
          0.05 0.05 0 0.2 0 0
          0.2 0.1 0 0.15 0 0
          0.2 0.05 0 0.15 0.1 0
          0.15 0.05 0 0.3 0 0
          0.3 0.1 0 0.25 0 0
          0.3 0.05 0 0.25 0.1 0
          0.25 0.05 0 0.4 0 0
          0.4 0.1 0 0.35 0 0
          0.4 0.05 0 0.35 0.1 0
          0.35 0.05 0 0.5 0 0
          0.5 0.1 0 0.45 0 0
          0.5 0.05 0 0.45 0.1 0
          0.45 0.05 0 0.6 0 0
          0.6 0.1 0 0.55 0 0
          0.6 0.05 0 0.55 0.1 0
          0.55 0.05 0 0.7 0 0
          0.7 0.1 0 0.65 0 0
          0.7 0.05 0 0.65 0.1 0
          0.65 0.05 0 0.8 0 0
          0.8 0.1 0 0.75 0 0
          0.8 0.05 0 0.75 0.1 0
          0.75 0.05 0 0.9 0 0
          0.9 0.1 0 0.85 0 0
          0.9 0.05 0 0.85 0.1 0
          0.85 0.05 0 1 0 0
          1 0.1 0 0.95 0 0
          1 0.05 0 0.95 0.1 0
          0.95 0.05 0 0.1 0.2 0
          0 0.2 0 0.1 0.15 0
          0.05 0.2 0 0 0.15 0
          0.05 0.15 0 0.2 0.2 0
          0.2 0.15 0 0.15 0.2 0
          0.15 0.15 0 0.3 0.2 0
          0.3 0.15 0 0.25 0.2 0
          0.25 0.15 0 0.4 0.2 0
          0.4 0.15 0 0.35 0.2 0
          0.35 0.15 0 0.5 0.2 0
          0.5 0.15 0 0.45 0.2 0
          0.45 0.15 0 0.6 0.2 0
          0.6 0.15 0 0.55 0.2 0
          0.55 0.15 0 0.7 0.2 0
          0.7 0.15 0 0.65 0.2 0
          0.65 0.15 0 0.8 0.2 0
          0.8 0.15 0 0.75 0.2 0
          0.75 0.15 0 0.9 0.2 0
          0.9 0.15 0 0.85 0.2 0
          0.85 0.15 0 1 0.2 0
          1 0.15 0 0.95 0.2 0
          0.95 0.15 0 0.1 0.3 0
          0 0.3 0 0.1 0.25 0
          0.05 0.3 0 0 0.25 0
          0.05 0.25 0 0.2 0.3 0
          0.2 0.25 0 0.15 0.3 0
          0.15 0.25 0 0.3 0.3 0
          0.3 0.25 0 0.25 0.3 0
          0.25 0.25 0 0.4 0.3 0
          0.4 0.25 0 0.35 0.3 0
          0.35 0.25 0 0.5 0.3 0
          0.5 0.25 0 0.45 0.3 0
          0.45 0.25 0 0.6 0.3 0
          0.6 0.25 0 0.55 0.3 0
          0.55 0.25 0 0.7 0.3 0
          0.7 0.25 0 0.65 0.3 0
          0.65 0.25 0 0.8 0.3 0
          0.8 0.25 0 0.75 0.3 0
          0.75 0.25 0 0.9 0.3 0
          0.9 0.25 0 0.85 0.3 0
          0.85 0.25 0 1 0.3 0
          1 0.25 0 0.95 0.3 0
          0.95 0.25 0 0.1 0.4 0
          0 0.4 0 0.1 0.35 0
          0.05 0.4 0 0 0.35 0
          0.05 0.35 0 0.2 0.4 0
          0.2 0.35 0 0.15 0.4 0
          0.15 0.35 0 0.3 0.4 0
          0.3 0.35 0 0.25 0.4 0
          0.25 0.35 0 0.4 0.4 0
          0.4 0.35 0 0.35 0.4 0
          0.35 0.35 0 0.5 0.4 0
          0.5 0.35 0 0.45 0.4 0
          0.45 0.35 0 0.6 0.4 0
          0.6 0.35 0 0.55 0.4 0
          0.55 0.35 0 0.7 0.4 0
          0.7 0.35 0 0.65 0.4 0
          0.65 0.35 0 0.8 0.4 0
          0.8 0.35 0 0.75 0.4 0
          0.75 0.35 0 0.9 0.4 0
          0.9 0.35 0 0.85 0.4 0
          0.85 0.35 0 1 0.4 0
          1 0.35 0 0.95 0.4 0
          0.95 0.35 0 0.1 0.5 0
          0 0.5 0 0.1 0.45 0
          0.05 0.5 0 0 0.45 0
          0.05 0.45 0 0.2 0.5 0
          0.2 0.45 0 0.15 0.5 0
          0.15 0.45 0 0.3 0.5 0
          0.3 0.45 0 0.25 0.5 0
          0.25 0.45 0 0.4 0.5 0
          0.4 0.45 0 0.35 0.5 0
          0.35 0.45 0 0.5 0.5 0
          0.5 0.45 0 0.45 0.5 0
          0.45 0.45 0 0.6 0.5 0
          0.6 0.45 0 0.55 0.5 0
          0.55 0.45 0 0.7 0.5 0
          0.7 0.45 0 0.65 0.5 0
          0.65 0.45 0 0.8 0.5 0
          0.8 0.45 0 0.75 0.5 0
          0.75 0.45 0 0.9 0.5 0
          0.9 0.45 0 0.85 0.5 0
          0.85 0.45 0 1 0.5 0
          1 0.45 0 0.95 0.5 0
          0.95 0.45 0 0.1 0.6 0
          0 0.6 0 0.1 0.55 0
          0.05 0.6 0 0 0.55 0
          0.05 0.55 0 0.2 0.6 0
          0.2 0.55 0 0.15 0.6 0
          0.15 0.55 0 0.3 0.6 0
          0.3 0.55 0 0.25 0.6 0
          0.25 0.55 0 0.4 0.6 0
          0.4 0.55 0 0.35 0.6 0
          0.35 0.55 0 0.5 0.6 0
          0.5 0.55 0 0.45 0.6 0
          0.45 0.55 0 0.6 0.6 0
          0.6 0.55 0 0.55 0.6 0
          0.55 0.55 0 0.7 0.6 0
          0.7 0.55 0 0.65 0.6 0
          0.65 0.55 0 0.8 0.6 0
          0.8 0.55 0 0.75 0.6 0
          0.75 0.55 0 0.9 0.6 0
          0.9 0.55 0 0.85 0.6 0
          0.85 0.55 0 1 0.6 0
          1 0.55 0 0.95 0.6 0
          0.95 0.55 0 0.1 0.7 0
          0 0.7 0 0.1 0.65 0
          0.05 0.7 0 0 0.65 0
          0.05 0.65 0 0.2 0.7 0
          0.2 0.65 0 0.15 0.7 0
          0.15 0.65 0 0.3 0.7 0
          0.3 0.65 0 0.25 0.7 0
          0.25 0.65 0 0.4 0.7 0
          0.4 0.65 0 0.35 0.7 0
          0.35 0.65 0 0.5 0.7 0
          0.5 0.65 0 0.45 0.7 0
          0.45 0.65 0 0.6 0.7 0
          0.6 0.65 0 0.55 0.7 0
          0.55 0.65 0 0.7 0.7 0
          0.7 0.65 0 0.65 0.7 0
          0.65 0.65 0 0.8 0.7 0
          0.8 0.65 0 0.75 0.7 0
          0.75 0.65 0 0.9 0.7 0
          0.9 0.65 0 0.85 0.7 0
          0.85 0.65 0 1 0.7 0
          1 0.65 0 0.95 0.7 0
          0.95 0.65 0 0.1 0.8 0
          0 0.8 0 0.1 0.75 0
          0.05 0.8 0 0 0.75 0
          0.05 0.75 0 0.2 0.8 0
          0.2 0.75 0 0.15 0.8 0
          0.15 0.75 0 0.3 0.8 0
          0.3 0.75 0 0.25 0.8 0
          0.25 0.75 0 0.4 0.8 0
          0.4 0.75 0 0.35 0.8 0
          0.35 0.75 0 0.5 0.8 0
          0.5 0.75 0 0.45 0.8 0
          0.45 0.75 0 0.6 0.8 0
          0.6 0.75 0 0.55 0.8 0
          0.55 0.75 0 0.7 0.8 0
          0.7 0.75 0 0.65 0.8 0
          0.65 0.75 0 0.8 0.8 0
          0.8 0.75 0 0.75 0.8 0
          0.75 0.75 0 0.9 0.8 0
          0.9 0.75 0 0.85 0.8 0
          0.85 0.75 0 1 0.8 0
          1 0.75 0 0.95 0.8 0
          0.95 0.75 0 0.1 0.9 0
          0 0.9 0 0.1 0.85 0
          0.05 0.9 0 0 0.85 0
          0.05 0.85 0 0.2 0.9 0