<?xml version="1.0"?>
<VTKFile type="UnstructuredGrid" version="0.1" byte_order="LittleEndian" compressor="vtkZLibDataCompressor">
  <UnstructuredGrid>
    <Piece NumberOfPoints="441" NumberOfCells="100">
      <PointData>
        <DataArray type="Float64" Name="u" format="ascii" RangeMin="-0.19541060997" RangeMax="1">
          2.1027260853e-16 -1.5273767886e-16 -0.0050317775084 2.8090192445e-17 6.6170381715e-16 -0.0019347107848
          -0.0012324681732 9.3027779971e-16 -0.00019365662996 -2.9157958566e-15 -0.018987359657 -5.0501023287e-15
          -0.0093614724564 -0.011065790009 -0.0049006489535 -6.9603105116e-15 -0.036442667429 -1.9805092904e-14
          -0.019341851669 -0.027747011357 -0.014346769785 -1.0181343607e-14 -0.050250081694 -3.4771708645e-14
          -0.027328633946 -0.044218970756 -0.023863446408 -1.1391764538e-14 -0.055422854115 -4.3884610838e-14
          -0.030332486739 -0.054156766317 -0.029642877309 -1.0176586974e-14 -0.050237523459 -4.3871897857e-14
          -0.027320739921 -0.05414781435 -0.029636895643 -6.9597326979e-15 -0.036441763424 -3.4756115574e-14
          -0.019342310428 -0.044208233335 -0.023856749812 -2.9223388759e-15 -0.019007299398 -1.9819116566e-14
          -0.0093754000747 -0.027757782398 -0.014355233841 -1.5745935428e-16 -0.0050481355641 -5.0784060592e-15
          -0.0019452239275 -0.011088934527 -0.0049164697448 2.104362885e-16 2.6340589961e-17 6.5628758391e-16
          9.2663111889e-16 -0.0012389963786 -0.00019733369894 -0.01116002378 -1.5077156965e-16 -0.0081742213231
          -0.0030056776708 -3.7283739025e-16 -0.0021742435251 -0.037322650394 -0.028314199499 -0.023062955572
          -0.017163186383 -0.06697114182 -0.052116107776 -0.052446534993 -0.040357517896 -0.089491961227
          -0.070586338263 -0.079707712404 -0.062535798365 -0.097783242591 -0.077455155111 -0.095730500514
          -0.075761675779 -0.089438133925 -0.070561467735 -0.095698119346 -0.07574550845 -0.066919563916
          -0.052101705785 -0.079645029502 -0.062510011792 -0.037316941007 -0.028330206663 -0.052415786514
          -0.040358646724 -0.011174900144 -0.0081928323491 -0.023076256946 -0.017187364436 -1.537969494e-16
          -3.8243676952e-16 -0.0030135681199 -0.0021822542442 -0.017074016422 -2.5225859922e-16 -0.014085905024
          -0.0046643779562 -7.7762642999e-16 -0.0038146454185 -0.055169493904 -0.046204537218 -0.034730334717
          -0.028859926657 -0.095964494488 -0.081501947513 -0.076262441768 -0.064332491436 -0.12563342058
          -0.10775333142 -0.11287293096 -0.096401771816 -0.13626602653 -0.1172990407 -0.13365342216
          -0.11494150006 -0.12543757073 -0.10764465574 -0.13354325924 -0.11487884032 -0.095715163498
          -0.081375860769 -0.1126243419 -0.096267874028 -0.05502245523 -0.04614819089 -0.076048958058
          -0.064234236478 -0.017046088643 -0.014087272847 -0.034653938798 -0.028842609787 -2.5701263978e-16
          -7.9440051308e-16 -0.004663325009 -0.0038207555388 -0.023631810385 -4.5545590454e-16 -0.020239844804
          -0.0066102952877 -1.4548844355e-15 -0.0056193752746 -0.073956003293 -0.064405554057 -0.047307297967
          -0.040829762861 -0.1246576303 -0.11045879833 -0.10062074069 -0.08840775072 -0.15945546795
          -0.1430904884 -0.14471239427 -0.12914561131 -0.17142460057 -0.15458038142 -0.16854299187
          -0.15178149765 -0.15897485631 -0.14276960712 -0.16828019749 -0.15160390306 -0.12398188889
          -0.11002626613 -0.14408016925 -0.12872997366 -0.07346372646 -0.064115638121 -0.099990828428
          -0.08801816733 -0.023476596174 -0.020161096783 -0.046991209059 -0.040656621989 -4.5694154809e-16
          -1.4676416775e-15 -0.0065726247266 -0.0056037004731 -0.031429601295 -5.443839164e-16 -0.027311953277
          -0.0087830990289 -1.7926553063e-15 -0.0075196339815 -0.09338127413 -0.083775396483 -0.061565800929
          -0.054317390597 -0.14919601006 -0.13797938817 -0.12356124476 -0.11258804375 -0.1835776997
          -0.1736283179 -0.1694644099 -0.15872110264 -0.19449132511 -0.18548921005 -0.19196164711
          -0.18267723109 -0.1827327954 -0.17296345633 -0.19150956946 -0.18231741147 -0.14791066317
          -0.13700802761 -0.16831710715 -0.1578332344 -0.092318523536 -0.083018444283 -0.12229239221
          -0.11165546861 -0.03103248325 -0.027051352961 -0.060817331127 -0.053805293922 -5.4221534322e-16
          -1.7976666267e-15 -0.0086776824186 -0.0074560505296 -0.041072499237 -1.6446336332e-15 -0.036127577701
          -0.012732767736 -4.8688415686e-15 -0.010884045565 -0.10941385859 -0.10221444958 -0.076036031845
          -0.068718119348 -0.15712729296 -0.15660217412 -0.13728789325 -0.13256454644 -0.17867084855
          -0.18659225526 -0.17063033324 -0.17462403566 -0.18391716956 -0.19541060997 -0.18286108787
          -0.19344318001 -0.177681623 -0.18561743618 -0.18234987612 -0.19292955107 -0.15543269942
          -0.15504244178 -0.1692145587 -0.17327065215 -0.10777020367 -0.10083605034 -0.13547669315
          -0.13097210773 -0.040346624928 -0.035566051161 -0.074774108886 -0.067709864434 -1.6092043245e-15
          -4.7872981712e-15 -0.012504320565 -0.010714416213 -0.051976080506 -1.2567828489e-15 -0.046154503162
          -0.015759939746 -4.0688776243e-15 -0.013038898655 -0.1099163379 -0.11355110763 -0.088547994282
          -0.083965632041 -0.11956531509 -0.1467738656 -0.11953725087 -0.13455316747 -0.1082985289
          -0.15480533651 -0.11470355213 -0.15292417366 -0.10167505301 -0.15477096986 -0.10340999034
          -0.15497594254 -0.10792328543 -0.15399992915 -0.10324313533 -0.15457242706 -0.11854152441
          -0.14521806913 -0.11402772819 -0.15170826341 -0.10838773126 -0.11179800759 -0.11815379465
          -0.13275966038 -0.051054220265 -0.045293370061 -0.087121987085 -0.082512906215 -1.2123153917e-15
          -3.9265671552e-15 -0.015457755559 -0.01277965584 -0.060567414944 -1.1855009929e-14 -0.05868577187
          -0.03234676026 -2.9850609167e-14 -0.025613860776 -0.051810601219 -0.092397180039 -0.070720208754
          -0.08459703543 0.023508587993 -0.067346910528 -0.016783365021 -0.085681923637 0.08298081553
          -0.031556450461 0.058053222645 -0.047450916435 0.1035876871 -0.017784276492 0.098707260708
          -0.021147600575 0.081889322465 -0.031865270902 0.09810977537 -0.021347902721 0.022079714675
          -0.067368338607 0.05666490737 -0.047700715737 -0.052265035731 -0.091604148453 -0.017862787536
          -0.085281940143 -0.060140765771 -0.057853686352 -0.070478333405 -0.083557751884 -1.1724776614e-14
          -2.9418399581e-14 -0.032051935232 -0.025253692125 0.014222013648 -4.891410404e-14 -0.046759732041
          -0.019295076149 -3.8062016528e-14 -0.022140736189 0.21461311009 0.0315367213 0.093143361038
          -0.039719714737 0.37682041565 0.16825545537 0.3163885855 0.11136473706 0.45076397218
          0.24223615115 0.41966722365 0.21086893652 0.47493012637 0.26776166257 0.46979988601
          0.26204015759 0.44902118415 0.24053300601 0.46895132772 0.26117738007 0.3736319013
          0.16550005115 0.41710139185 0.20849147626 0.21077041733 0.029216912812 0.31269245196
          0.10859006304 0.012667981145 -0.047157956462 0.090063328773 -0.041044738373 -4.8474461993e-14
          -3.6958949771e-14 -0.018753461972 -0.021946774788 1 0.5 0.24979217808
          1 -8.3819415916e-14 0.017849988799 1 0.54417477509 1
          0.45944976407 1 0.65437230641 1 0.60701534549 1
          0.70774889162 1 0.68920879247 1 0.72161495206 1
          0.7185233433 1 0.70676763573 1 0.71800457056 1
          0.65225333215 1 0.68769768925 1 0.54124982811 1
          0.60432257299 1 0.24694360289 1 0.45616331926 0.5
          -8.4045121919e-14 1 0.016094257644
        </DataArray>
        <DataArray type="Float64" Name="v" format="ascii" RangeMin="-0.35974246793" RangeMax="0.36274872073">
          -2.104560608e-16 -2.6892451671e-18 0.0049540195991 9.2958327474e-17 -9.0136293985e-16 0.0012148454253
          0.0019178886788 -6.7041329033e-16 0.00019786215646 1.8232916117e-16 0.0091875367761 5.2823812291e-16
          0.0024809656651 0.0075627440415 0.002025989776 2.0482708558e-16 0.0091831489211 8.3327408389e-16
          0.0025303282516 0.0097231161457 0.002672601371 1.210989282e-16 0.0055522476426 6.948581293e-16
          0.0015332057027 0.0077326280675 0.0021458140886 -4.7280925042e-19 -6.3879136421e-06 2.530271164e-16
          -1.5904937882e-06 0.0028959140419 0.00080287243967 -1.2130302198e-16 -0.0055543866555 -2.5576959514e-16
          -0.0015330997034 -0.0029056803744 -0.00080519855732 -2.0394218689e-16 -0.0091699733538 -6.9323983371e-16
          -0.0025256478095 -0.007725753567 -0.0021429364988 -1.8180461356e-16 -0.0091807411489 -8.2971114716e-16
          -0.002478575905 -0.0097097869269 -0.002667888162 1.748009066e-18 -0.0049668645054 -5.2956273756e-16
          -0.0012186906221 -0.0075669082645 -0.0020272125691 2.1083911757e-16 -9.873742091e-17 8.9907228624e-16
          6.6536504793e-16 -0.0019304988169 -0.00020101497658 0.020216045879 2.9466402416e-15 0.01120494168
          0.010131898039 5.0032623196e-15 0.0050504333792 0.032809703905 0.019405437212 0.028113169268
          0.016263058922 0.031646674847 0.019078472762 0.033926694758 0.020310321704 0.018902636716
          0.0114801164 0.026421810827 0.016003576201 -2.554249579e-05 -1.1875741408e-05 0.0098282326696
          0.0059806007255 -0.018917666891 -0.011482872509 -0.0098692557886 -0.0059984318505 -0.031604610493
          -0.01905020383 -0.026404923588 -0.01598837142 -0.032776208179 -0.019388096225 -0.03387814366
          -0.020281016005 -0.02024552236 -0.011227033589 -0.028111711209 -0.016266839848 -2.9685934984e-15
          -5.0530662422e-15 -0.010169111593 -0.0050738693604 0.045871313608 8.5176826968e-15 0.031707264449
          0.024879418744 2.2305715514e-14 0.016659655009 0.068890235933 0.049258436377 0.060860005152
          0.042909342002 0.064101617169 0.046680390244 0.069751118922 0.050396786157 0.037609084192
          0.027655004884 0.052951542787 0.038780147038 -9.3966395079e-05 -4.7925927904e-05 0.019452450448
          0.014346523579 -0.03770319293 -0.027692318932 -0.019614878425 -0.014426296097 -0.064022385471
          -0.046617897714 -0.052955680666 -0.038763707677 -0.068767465036 -0.049191193607 -0.069624828633
          -0.050315115949 -0.045874770886 -0.031732884556 -0.060791309908 -0.042886070543 -8.5554691804e-15
          -2.2424703446e-14 -0.024925487387 -0.016705451456 0.082364963296 1.6553256336e-14 0.062581138965
          0.046219725655 4.9544695028e-14 0.034586038317 0.11720791103 0.091507555755 0.10613197651
          0.081811717988 0.10518491031 0.083669882605 0.11632888051 0.09175451897 0.060313271575
          0.048578580146 0.085771464936 0.068702447004 -0.00027972281264 -0.00016484166856 0.030955607103
          0.025039890368 -0.060657299289 -0.048763769935 -0.031457543717 -0.025330742654 -0.10507949963
          -0.083570330154 -0.08589485868 -0.06874419886 -0.11685382006 -0.091291172454 -0.11604973825
          -0.091560302674 -0.082191158132 -0.0625256085 -0.10582494567 -0.081654194064 -1.6580967742e-14
          -4.9682291509e-14 -0.046190003988 -0.034611623946 0.13037896097 2.797391329e-14 0.10486563439
          0.075336971576 8.7414562897e-14 0.059516856769 0.17640122593 0.14553646647 0.16370577489
          0.13338304697 0.15125529162 0.12799871138 0.17095402097 0.14290449963 0.084057108904
          0.072360062953 0.12118396414 0.10354829127 -0.00064430124553 -0.00043682977517 0.042683229223
          0.036956963289 -0.084940669954 -0.072929577459 -0.043865657335 -0.03775004094 -0.15119679902
          -0.12789976745 -0.12162573332 -0.10379715296 -0.17560705215 -0.14499035524 -0.17044813541
          -0.1425174087 -0.12973914397 -0.10450396819 -0.1628719061 -0.1328551563 -2.7910226883e-14
          -8.7385544648e-14 -0.075036335871 -0.059388549034 0.19255519263 4.339548858e-14 0.15896272776
          0.1147421419 1.4237879994e-13 0.093290314351 0.24009947607 0.20847516892 0.23226367468
          0.19655872242 0.19249158321 0.17344772585 0.22443119096 0.19884836242 0.10210109642
          0.094442339559 0.15028317733 0.13737774151 -0.0011480900607 -0.00089326715591 0.051050121121
          0.047622626827 -0.10381445436 -0.095723367264 -0.05319624244 -0.049277801554 -0.19268807611
          -0.17348522277 -0.15131885655 -0.13808868106 -0.23871308994 -0.20739396207 -0.22376104987
          -0.19824064639 -0.19096906464 -0.15793066495 -0.23052575706 -0.19532575392 -4.3084929013e-14
          -1.4169263271e-13 -0.1138180863 -0.09274214946 0.2617631357 6.7002751904e-14 0.22781811956
          0.16640760223 2.1328481891e-13 0.13801701367 0.29045298761 0.26849611799 0.29784121872
          0.26718799423 0.20806423043 0.20553337652 0.25604777715 0.24485091319 0.10309983302
          0.10560077741 0.15603255766 0.15759690948 -0.0015177644972 -0.0013921929016 0.05057489811
          0.052299796406 -0.10558752737 -0.10777604518 -0.053475221574 -0.05492892491 -0.20883994214
          -0.20600517542 -0.15780806534 -0.15903495611 -0.28876684158 -0.26689338381 -0.25559980625
          -0.24423882689 -0.25904036036 -0.22564710356 -0.29527441469 -0.26498303223 -6.6249688224e-14
          -2.1127463243e-13 -0.16454956908 -0.13666374531 0.34361283513 1.0530319219e-13 0.29745627096
          0.24616852115 3.4202004164e-13 0.19877720692 0.2788743587 0.29915221764 0.33572789948
          0.32196670692 0.16846278249 0.19680973373 0.22097625278 0.25159917269 0.075855315553
          0.093585157943 0.12004081365 0.14400904123 -0.0013097031673 -0.0015202506459 0.03610146326
          0.045353427997 -0.078232721971 -0.096220419025 -0.038660814459 -0.048298813956 -0.16988801156
          -0.1979808791 -0.12207537622 -0.14606320298 -0.27790577287 -0.29770858853 -0.22141529135
          -0.2515731639 -0.339851787 -0.29416087275 -0.3330695638 -0.31922022155 -1.0389240147e-13
          -3.378716202e-13 -0.2431575045 -0.19637031346 0.25966714354 2.4917946542e-13 0.36274872073
          0.3240566928 5.2467781314e-13 0.28096952122 0.14171266056 0.22471303742 0.18249032116
          0.30753475931 0.068037865417 0.12507363429 0.10286509967 0.1682448558 0.028327068463
          0.05256283081 0.044650028215 0.086092662172 -0.0005065506179 -0.00092839599269 0.013695798109
          0.024635172607 -0.029344060513 -0.054319494311 -0.014715697274 -0.026458893105 -0.069068910563
          -0.12647836867 -0.045679529593 -0.087764933952 -0.14205095849 -0.22450284865 -0.10367778833
          -0.16901667491 -0.25829957533 -0.35974246793 -0.18240745638 -0.30599154728 -2.4714085202e-13
          -5.1791625938e-13 -0.32108905535 -0.27777594618 2.5952194508e-14 1.2989080392e-13 0.094343560779
          6.4611298501e-13 1.1754668865e-12 0.31178386012 1.4970798131e-14 0.058242563922 -9.3540634329e-15
          0.042462508772 -8.6683615549e-16 0.017661563711 4.0250636867e-14 0.041238520457 1.3674258896e-15
          0.0090872641142 -3.0573333922e-15 0.010298643619 2.7236215873e-17 -0.00011788454374 4.2851044044e-15
          0.0050710808163 -1.3323449462e-15 -0.0093469127727 -4.1472812098e-15 -0.0053356705425 8.8388296944e-16
          -0.018006347061 3.3288581845e-15 -0.010529881124 -1.4760157401e-14 -0.058251305716 -4.0240610366e-14
          -0.041611782853 -2.6743768797e-14 -0.094785055669 9.4338934889e-15 -0.042589546681 -1.2835699917e-13
          -1.1659902692e-12 -6.4276765984e-13 -0.31005789453
        </DataArray>
        <DataArray type="Float64" Name="p" format="ascii" RangeMin="-83.703354347" RangeMax="82.978942947">
          -0.31944286076 -0.40919519389 -0.32142873566 -0.22826415792 -0.36431902733 -0.36531196477
          -0.27484644679 -0.27385350934 -0.31958273706 -0.54647018978 -0.38653423788 -0.47783269183
          -0.46650221383 -0.35398148677 -0.4159070893 -0.50553237092 -0.34890177618 -0.52600128035
          -0.42721707355 -0.36771800703 -0.44685964369 -0.29348840308 -0.19777561128 -0.399510387
          -0.24563200718 -0.27333869373 -0.33642454037 0.022041205082 0.022022390792 -0.135723599
          0.022031797937 -0.087876610245 -0.11180010462 0.33716180539 0.24150655426 0.17960150523
          0.28933417983 0.13176447253 0.15568298888 0.54862062045 0.39216952587 0.44289121292
          0.47039507316 0.31683804006 0.37986462649 0.58979082963 0.42992034022 0.56920572504
          0.50985558492 0.41104493304 0.49012532904 0.4531382255 0.3653110536 0.52146452757
          0.40922463955 0.39761569691 0.45954011224 0.36334785487 0.27204543625 0.40824304019
          0.31769664556 0.31867824493 0.36346064256 -0.26451083646 -0.05980291217 -0.29296978606
          -0.16215687432 -0.14403353504 -0.21850166055 -0.35243543238 -0.36948483513 -0.30847313442
          -0.3312273106 -0.3170636939 -0.33298273504 -0.33474956314 -0.35123378509 -0.17689433128
          -0.18733497128 -0.24697901259 -0.26015885316 0.022949478645 0.022485934719 -0.076972426317
          -0.082424518281 0.22212879265 0.23181767345 0.12253913565 0.12715180409 0.3611358522
          0.37665268903 0.29163232242 0.30423518124 0.39632427356 0.41312230689 0.37873006288
          0.39488749796 0.30932172647 0.33731639004 0.35282300002 0.37521934846 0.104631055
          0.18833824563 0.20697639074 0.26282731783 -0.32268489864 -0.008553672325 -0.29359786755
          -0.16561928548 -0.034178292248 -0.1638880799 -0.44169455147 -0.39706499193 -0.38218972506
          -0.34533142974 -0.39231393411 -0.35468881401 -0.41700424279 -0.37587690297 -0.2156124481
          -0.19625338969 -0.3039631911 -0.27547110185 0.026212291585 0.024580885115 -0.094700078256
          -0.085836252286 0.26650615327 0.24431747296 0.14635922243 0.13444917904 0.44015769438
          0.40064677329 0.35333192383 0.32248212313 0.48800513162 0.44216470259 0.464081413
          0.42140573794 0.37019253886 0.33975713267 0.42909883524 0.39096091763 0.057267368777
          0.080949211891 0.21372995382 0.21035317228 -0.56530636836 -0.15471087269 -0.4439956335
          -0.36000862053 -0.081632272509 -0.26281395301 -0.70680827175 -0.57425141161 -0.63605732005
          -0.50912352256 -0.59218605723 -0.49224999567 -0.64949716449 -0.53325070364 -0.31774242915
          -0.26667743862 -0.45496424319 -0.37946371715 0.034120887881 0.030166589733 -0.14181077063
          -0.11825542445 0.38266278245 0.32458446786 0.20839183516 0.1773755288 0.64972924916
          0.54494347177 0.5161960158 0.43476396981 0.75894224747 0.62347368954 0.70433574831
          0.58420858066 0.61837544817 0.49428399352 0.68865884782 0.55887884153 0.21083702019
          0.13405219448 0.41460623418 0.314168094 -1.1411111677 -0.54646255731 -0.85320876803
          -0.84378686251 -0.350586715 -0.60189774152 -1.2063258797 -0.95656707572 -1.1737185237
          -0.90488792188 -0.95232492996 -0.77225549359 -1.0793254048 -0.86441128466 -0.48929467509
          -0.40351855212 -0.72080980253 -0.58788702286 0.049611602738 0.041866245309 -0.21984153618
          -0.18082615341 0.58185607786 0.48225943015 0.3157338403 0.26206283773 1.0291931048
          0.83946117696 0.80552459132 0.66086030356 1.2688564542 1.0138993508 1.1490247795
          0.9266802639 1.2003300603 0.90935275426 1.2345932573 0.96162605254 0.61407610099
          0.41245656059 0.90720308067 0.66090465742 -2.0981792905 -1.5523767719 -1.6196452291
          -1.8252780312 -1.0494196646 -1.3345324468 -2.0879738571 -1.6471498684 -2.0930765738
          -1.6333975487 -1.4873178236 -1.2198213768 -1.7876458403 -1.4334856226 -0.73308159665
          -0.61118813587 -1.1101997101 -0.91550475632 0.07385785764 0.061734730189 -0.3296118695
          -0.27472670284 0.86964333194 0.7257497049 0.47175059479 0.39374221755 1.5948557157
          1.3120244102 1.2322495238 1.0188870576 2.1642963582 1.7165764062 1.8795760369
          1.5143004082 2.1633839681 1.6818570142 2.1638401631 1.6992167102 1.6262833976
          1.1201797493 1.8948336829 1.4010183818 -4.2339729429 -3.0459984225 -3.1660761167
          -3.6399856827 -2.2991875972 -2.7326318569 -3.3107705731 -2.6993722151 -3.772371758
          -2.9327241659 -2.2145736807 -1.8509457522 -2.7626721269 -2.2751589836 -1.0006305713
          -0.86685608399 -1.607602126 -1.3589009181 0.10131216658 0.087585012112 -0.44965920238
          -0.38963553594 1.1872980283 1.0284706801 0.64430509742 0.5580278461 2.3588408264
          1.976848271 1.7730694273 1.5026594756 3.3994913499 2.781893854 2.8791660882
          2.3793710625 4.2835868569 3.2234854125 3.8415391034 3.0026896333 3.1126000738
          2.3694417357 3.6980934653 2.7964635741 -6.7850663686 -7.6003663636 -5.5095196558
          -7.1927163661 -5.3231823931 -5.4163510244 -5.3235562055 -4.3171633893 -6.054311287
          -4.9133415225 -2.7841956418 -2.4993846613 -4.0538759237 -3.4082740253 -1.22806871
          -1.1143496407 -2.0061321759 -1.806867151 0.11533089239 0.10832152949 -0.55636890881
          -0.5030140556 1.4428335018 1.315065765 0.77908219708 0.71169364725 2.9458592039
          2.6523500151 2.1943463528 1.9837078901 5.4093960542 4.4044437021 4.177627629
          3.5283968586 6.806943892 5.5452653744 6.1081699731 4.9748545382 7.6081037411
          5.3603519074 7.2075238165 5.4528086409 -16.232056218 -15.632801623 -11.508561293
          -15.93242892 -11.616583993 -11.562572643 -5.2292239126 -5.276390059 -10.730640065
          -8.3924756762 -3.1669212827 -2.9755584623 -4.1980725976 -4.1259742606 -1.0478720556
          -1.1379703828 -2.1073966691 -2.0567644225 0.10579565755 0.11056327497 -0.47103819903
          -0.51370355392 1.235168987 1.3390012444 0.6704823223 0.72478225969 3.308575117
          3.1272171605 2.271872052 2.2331092024 5.2658590741 5.3376275641 4.2872170956
          4.2324223623 16.139119086 11.473031489 10.70248908 8.4053295265 15.480748862
          11.544426301 15.809933974 11.508728895 -3.8962038289 -83.703354347 -10.064130024
          -43.799779088 -49.668077985 -29.866104004 -5.9804465969 -5.6048352548 -4.9383252129
          -7.8344826392 -1.0907566605 -2.1288389716 -3.5356016287 -3.8668371132 -0.80640598573
          -0.92713902067 -0.9485813231 -1.5279889961 0.08549070105 0.095643179298 -0.36045764234
          -0.41574792069 0.9698641627 1.1025165749 0.52767743187 0.59907987709 1.1755649234
          2.2420700202 1.072714543 1.6722932975 5.9836846691 5.6247718716 3.5796247962
          3.9334209459 3.7677259664 9.9534225262 4.8757053178 7.7890971989 82.978942947
          49.229845904 43.373334457 29.591634215
        </DataArray>
      </PointData>
      <CellData>
        <DataArray type="Int32" Name="libmesh_elem_id" format="ascii" RangeMin="0" RangeMax="99">
          0 1 2 3 4 5
          6 7 8 9 10 11
          12 13 14 15 16 17
          18 19 20 21 22 23
          24 25 26 27 28 29
          30 31 32 33 34 35
          36 37 38 39 40 41
          42 43 44 45 46 47
          48 49 50 51 52 53
          54 55 56 57 58 59
          60 61 62 63 64 65
          66 67 68 69 70 71
          72 73 74 75 76 77
          78 79 80 81 82 83
          84 85 86 87 88 89
          90 91 92 93 94 95
          96 97 98 99
        </DataArray>
        <DataArray type="Int32" Name="subdomain_id" format="ascii" RangeMin="0" RangeMax="0">
          0 0 0 0 0 0
          0 0 0 0 0 0
          0 0 0 0 0 0
          0 0 0 0 0 0
          0 0 0 0 0 0
          0 0 0 0 0 0
          0 0 0 0 0 0
          0 0 0 0 0 0
          0 0 0 0 0 0
          0 0 0 0 0 0
          0 0 0 0 0 0
          0 0 0 0 0 0
          0 0 0 0 0 0
          0 0 0 0 0 0
          0 0 0 0 0 0
          0 0 0 0 0 0
          0 0 0 0
        </DataArray>
        <DataArray type="Int32" Name="processor_id" format="ascii" RangeMin="0" RangeMax="0">
          0 0 0 0 0 0
          0 0 0 0 0 0
          0 0 0 0 0 0
          0 0 0 0 0 0
          0 0 0 0 0 0
          0 0 0 0 0 0
          0 0 0 0 0 0
          0 0 0 0 0 0
          0 0 0 0 0 0
          0 0 0 0 0 0
          0 0 0 0 0 0
          0 0 0 0 0 0
          0 0 0 0 0 0
          0 0 0 0 0 0
          0 0 0 0 0 0
          0 0 0 0 0 0
          0 0 0 0
        </DataArray>
      </CellData>
      <Points>
        <DataArray type="Float64" Name="Points" NumberOfComponents="3" format="ascii" RangeMin="0" RangeMax="1.4142135624">
          0 0 0 0.1 0 0
          0.1 0.1 0 0 0.1 0
          0.05 0 0 0.1 0.05 0
          0.05 0.1 0 0 0.05 0
          0.05 0.05 0 0.2 0 0
          0.2 0.1 0 0.15 0 0
          0.2 0.05 0 0.15 0.1 0
          0.15 0.05 0 0.3 0 0
          0.3 0.1 0 0.25 0 0
          0.3 0.05 0 0.25 0.1 0
          0.25 0.05 0 0.4 0 0
          0.4 0.1 0 0.35 0 0
          0.4 0.05 0 0.35 0.1 0
          0.35 0.05 0 0.5 0 0
          0.5 0.1 0 0.45 0 0
          0.5 0.05 0 0.45 0.1 0
          0.45 0.05 0 0.6 0 0
          0.6 0.1 0 0.55 0 0
          0.6 0.05 0 0.55 0.1 0
          0.55 0.05 0 0.7 0 0
          0.7 0.1 0 0.65 0 0
          0.7 0.05 0 0.65 0.1 0
          0.65 0.05 0 0.8 0 0
          0.8 0.1 0 0.75 0 0
          0.8 0.05 0 0.75 0.1 0
          0.75 0.05 0 0.9 0 0
          0.9 0.1 0 0.85 0 0
          0.9 0.05 0 0.85 0.1 0
          0.85 0.05 0 1 0 0
          1 0.1 0 0.95 0 0
          1 0.05 0 0.95 0.1 0
          0.95 0.05 0 0.1 0.2 0
          0 0.2 0 0.1 0.15 0
          0.05 0.2 0 0 0.15 0
          0.05 0.15 0 0.2 0.2 0
          0.2 0.15 0 0.15 0.2 0
          0.15 0.15 0 0.3 0.2 0
          0.3 0.15 0 0.25 0.2 0
          0.25 0.15 0 0.4 0.2 0
          0.4 0.15 0 0.35 0.2 0
          0.35 0.15 0 0.5 0.2 0
          0.5 0.15 0 0.45 0.2 0
          0.45 0.15 0 0.6 0.2 0
          0.6 0.15 0 0.55 0.2 0
          0.55 0.15 0 0.7 0.2 0
          0.7 0.15 0 0.65 0.2 0
          0.65 0.15 0 0.8 0.2 0
          0.8 0.15 0 0.75 0.2 0
          0.75 0.15 0 0.9 0.2 0
          0.9 0.15 0 0.85 0.2 0
          0.85 0.15 0 1 0.2 0
          1 0.15 0 0.95 0.2 0
          0.95 0.15 0 0.1 0.3 0
          0 0.3 0 0.1 0.25 0
          0.05 0.3 0 0 0.25 0
          0.05 0.25 0 0.2 0.3 0
          0.2 0.25 0 0.15 0.3 0
          0.15 0.25 0 0.3 0.3 0
          0.3 0.25 0 0.25 0.3 0
          0.25 0.25 0 0.4 0.3 0
          0.4 0.25 0 0.35 0.3 0
          0.35 0.25 0 0.5 0.3 0
          0.5 0.25 0 0.45 0.3 0
          0.45 0.25 0 0.6 0.3 0
          0.6 0.25 0 0.55 0.3 0
          0.55 0.25 0 0.7 0.3 0
          0.7 0.25 0 0.65 0.3 0
          0.65 0.25 0 0.8 0.3 0
          0.8 0.25 0 0.75 0.3 0
          0.75 0.25 0 0.9 0.3 0
          0.9 0.25 0 0.85 0.3 0
          0.85 0.25 0 1 0.3 0
          1 0.25 0 0.95 0.3 0
          0.95 0.25 0 0.1 0.4 0
          0 0.4 0 0.1 0.35 0
          0.05 0.4 0 0 0.35 0
          0.05 0.35 0 0.2 0.4 0
          0.2 0.35 0 0.15 0.4 0
          0.15 0.35 0 0.3 0.4 0
          0.3 0.35 0 0.25 0.4 0
          0.25 0.35 0 0.4 0.4 0
          0.4 0.35 0 0.35 0.4 0
          0.35 0.35 0 0.5 0.4 0
          0.5 0.35 0 0.45 0.4 0
          0.45 0.35 0 0.6 0.4 0
          0.6 0.35 0 0.55 0.4 0
          0.55 0.35 0 0.7 0.4 0
          0.7 0.35 0 0.65 0.4 0
          0.65 0.35 0 0.8 0.4 0
          0.8 0.35 0 0.75 0.4 0
          0.75 0.35 0 0.9 0.4 0
          0.9 0.35 0 0.85 0.4 0
          0.85 0.35 0 1 0.4 0
          1 0.35 0 0.95 0.4 0
          0.95 0.35 0 0.1 0.5 0
          0 0.5 0 0.1 0.45 0
          0.05 0.5 0 0 0.45 0
          0.05 0.45 0 0.2 0.5 0
          0.2 0.45 0 0.15 0.5 0
          0.15 0.45 0 0.3 0.5 0
          0.3 0.45 0 0.25 0.5 0
          0.25 0.45 0 0.4 0.5 0
          0.4 0.45 0 0.35 0.5 0
          0.35 0.45 0 0.5 0.5 0
          0.5 0.45 0 0.45 0.5 0
          0.45 0.45 0 0.6 0.5 0
          0.6 0.45 0 0.55 0.5 0
          0.55 0.45 0 0.7 0.5 0
          0.7 0.45 0 0.65 0.5 0
          0.65 0.45 0 0.8 0.5 0
          0.8 0.45 0 0.75 0.5 0
          0.75 0.45 0 0.9 0.5 0
          0.9 0.45 0 0.85 0.5 0
          0.85 0.45 0 1 0.5 0
          1 0.45 0 0.95 0.5 0
          0.95 0.45 0 0.1 0.6 0
          0 0.6 0 0.1 0.55 0
          0.05 0.6 0 0 0.55 0
          0.05 0.55 0 0.2 0.6 0
          0.2 0.55 0 0.15 0.6 0
          0.15 0.55 0 0.3 0.6 0
          0.3 0.55 0 0.25 0.6 0
          0.25 0.55 0 0.4 0.6 0
          0.4 0.55 0 0.35 0.6 0
          0.35 0.55 0 0.5 0.6 0
          0.5 0.55 0 0.45 0.6 0
          0.45 0.55 0 0.6 0.6 0
          0.6 0.55 0 0.55 0.6 0
          0.55 0.55 0 0.7 0.6 0
          0.7 0.55 0 0.65 0.6 0
          0.65 0.55 0 0.8 0.6 0
          0.8 0.55 0 0.75 0.6 0
          0.75 0.55 0 0.9 0.6 0
          0.9 0.55 0 0.85 0.6 0
          0.85 0.55 0 1 0.6 0
          1 0.55 0 0.95 0.6 0
          0.95 0.55 0 0.1 0.7 0
          0 0.7 0 0.1 0.65 0
          0.05 0.7 0 0 0.65 0
          0.05 0.65 0 0.2 0.7 0
          0.2 0.65 0 0.15 0.7 0
          0.15 0.65 0 0.3 0.7 0
          0.3 0.65 0 0.25 0.7 0
          0.25 0.65 0 0.4 0.7 0
          0.4 0.65 0 0.35 0.7 0
          0.35 0.65 0 0.5 0.7 0
          0.5 0.65 0 0.45 0.7 0
          0.45 0.65 0 0.6 0.7 0
          0.6 0.65 0 0.55 0.7 0
          0.55 0.65 0 0.7 0.7 0
          0.7 0.65 0 0.65 0.7 0
          0.65 0.65 0 0.8 0.7 0
          0.8 0.65 0 0.75 0.7 0
          0.75 0.65 0 0.9 0.7 0
          0.9 0.65 0 0.85 0.7 0
          0.85 0.65 0 1 0.7 0
          1 0.65 0 0.95 0.7 0
          0.95 0.65 0 0.1 0.8 0
          0 0.8 0 0.1 0.75 0
          0.05 0.8 0 0 0.75 0
          0.05 0.75 0 0.2 0.8 0
          0.2 0.75 0 0.15 0.8 0
          0.15 0.75 0 0.3 0.8 0
          0.3 0.75 0 0.25 0.8 0
          0.25 0.75 0 0.4 0.8 0
          0.4 0.75 0 0.35 0.8 0
          0.35 0.75 0 0.5 0.8 0
          0.5 0.75 0 0.45 0.8 0
          0.45 0.75 0 0.6 0.8 0
          0.6 0.75 0 0.55 0.8 0
          0.55 0.75 0 0.7 0.8 0
          0.7 0.75 0 0.65 0.8 0
          0.65 0.75 0 0.8 0.8 0
          0.8 0.75 0 0.75 0.8 0
          0.75 0.75 0 0.9 0.8 0
          0.9 0.75 0 0.85 0.8 0
          0.85 0.75 0 1 0.8 0
          1 0.75 0 0.95 0.8 0
          0.95 0.75 0 0.1 0.9 0
          0 0.9 0 0.1 0.85 0
          0.05 0.9 0 0 0.85 0
          0.05 0.85 0 0.2 0.9 0