<?xml version="1.0"?>
<VTKFile type="UnstructuredGrid" version="0.1" byte_order="LittleEndian" compressor="vtkZLibDataCompressor">
  <UnstructuredGrid>
    <Piece NumberOfPoints="441" NumberOfCells="100">
      <PointData>
        <DataArray type="Float64" Name="u" format="ascii" RangeMin="-0.11592541566" RangeMax="1">
          9.8822896914e-17 -6.8952770751e-16 -0.0036660799784 -1.6124845885e-16 -4.2858816756e-16 -0.0020617768093
          -0.0010657512132 -8.1396602687e-17 -0.00047445366541 -2.7092914881e-15 -0.010986246159 -6.523662435e-15
          -0.00658691878 -0.0071191050798 -0.0041364203945 -4.7958404926e-15 -0.018380196397 -1.5239208846e-14
          -0.011243506066 -0.014866733794 -0.0090551939068 -6.2192851077e-15 -0.02357521584 -2.2323445455e-14
          -0.014495011016 -0.021384932592 -0.013145776992 -6.7237296377e-15 -0.025419511052 -2.6242625188e-14
          -0.015649145815 -0.02499923341 -0.015412168044 -6.2169972976e-15 -0.023568901818 -2.623749742e-14
          -0.014490674636 -0.024995584176 -0.015409623579 -4.7931487212e-15 -0.018372760801 -2.231236449e-14
          -0.011238380561 -0.021377069677 -0.013140292015 -2.7080131261e-15 -0.010982584036 -1.5230752996e-14
          -0.0065843653959 -0.014860731666 -0.0090510126206 -6.8945837538e-16 -0.0036657007277 -6.5217157143e-15
          -0.0020614864917 -0.0071175734093 -0.004135384158 9.8778647159e-17 -1.6138295441e-16 -4.288046955e-16
          -8.1777554488e-17 -0.001065893802 -0.00047455540721 -0.0058119296616 -2.2390231267e-16 -0.0048474735383
          -0.0016894120905 -8.4269805219e-16 -0.001431147999 -0.017061958414 -0.014249581047 -0.011207366896
          -0.0093264885163 -0.028047137123 -0.023576978523 -0.022853991779 -0.019152585156 -0.035665722593
          -0.030105576227 -0.032449993361 -0.027349891596 -0.0383534898 -0.032419313828 -0.037728473972
          -0.031886447837 -0.035652790542 -0.030096949445 -0.037721115376 -0.031881483747 -0.028031214952
          -0.02356669768 -0.032433679532 -0.027339100458 -0.01705338828 -0.014244470269 -0.022840677322
          -0.019144216594 -0.0058107432069 -0.0048469698579 -0.011203438649 -0.0093243983808 -2.2416260345e-16
          -8.4340780831e-16 -0.0016895521993 -0.0014313265324 -0.0079557672034 -2.7708020265e-16 -0.0067993500721
          -0.0022953813829 -9.6809822548e-16 -0.0019550869524 -0.023260434822 -0.019953394324 -0.015342256597
          -0.013132963166 -0.037827006787 -0.032634108325 -0.030997699813 -0.026659841482 -0.047648565506
          -0.041325068089 -0.043533307055 -0.037668114699 -0.051048367727 -0.04436648871 -0.050258702101
          -0.043658933022 -0.047614739185 -0.041304188557 -0.050239908706 -0.043647187902 -0.037781940653
          -0.032607335011 -0.043489610063 -0.037641462376 -0.023231158881 -0.019937388092 -0.030957455842
          -0.026636646024 -0.0079484811725 -0.0067962376061 -0.01532523894 -0.013124493499 -2.777221779e-16
          -9.7018574183e-16 -0.0022944554648 -0.0019551191856 -0.011249316008 -4.4298057175e-16 -0.0094100961305
          -0.0033175342738 -1.468627267e-15 -0.0027649620586 -0.032350112541 -0.027306528366 -0.021505266622
          -0.018052193534 -0.051543501258 -0.044058873036 -0.042705632012 -0.03627101604 -0.063816740014
          -0.055095031592 -0.05874710863 -0.050496739308 -0.06791446149 -0.058860727268 -0.066976298278
          -0.057991355649 -0.063735094708 -0.055041371624 -0.066931922237 -0.057961896771 -0.051427135439
          -0.043984866508 -0.058639015915 -0.050426525109 -0.032264497935 -0.027255306605 -0.042596229068
          -0.036203168912 -0.011222214285 -0.0093951814201 -0.021450197997 -0.018020753852 -4.4283453967e-16
          -1.4691985351e-15 -0.0033107651007 -0.0027615226202 -0.0167615705 -5.0921186483e-16 -0.013604512888
          -0.0048081049311 -1.709444098e-15 -0.0038522371607 -0.046532211572 -0.038713670244 -0.031711760308
          -0.026034827212 -0.070997558847 -0.060528542581 -0.060061279677 -0.050583517226 -0.085094653015
          -0.07393057241 -0.079469032381 -0.068478746137 -0.089456102572 -0.078258231943 -0.088483867864
          -0.077277720649 -0.0849300068 -0.073811394198 -0.088396210243 -0.07721347832 -0.070744633424
          -0.060352672535 -0.079244697707 -0.068318951031 -0.046323427948 -0.038576221659 -0.059810710737
          -0.050413739345 -0.016685836214 -0.013558649346 -0.031565750611 -0.025942305837 -5.1013159116e-16
          -1.7131625853e-15 -0.0047897807015 -0.003842412058 -0.026517779629 -1.5460107874e-15 -0.021057514287
          -0.0085678284076 -4.5255887855e-15 -0.0066719684346 -0.067606435618 -0.056076651428 -0.047846554935
          -0.038683377613 -0.095069975256 -0.082857058988 -0.083894545684 -0.071388541377 -0.10735519661
          -0.096747037865 -0.10278854655 -0.091328695927 -0.11051932602 -0.10079749177 -0.10987316611
          -0.099919313095 -0.10710101145 -0.096533211876 -0.10974307917 -0.099807712099 -0.094631747556
          -0.082511530101 -0.10242478607 -0.091030705212 -0.06718392867 -0.055773098932 -0.083426380081
          -0.07103529502 -0.026335984116 -0.020936027228 -0.047524897648 -0.038463396086 -1.5367892388e-15
          -4.5059961308e-15 -0.0085109475918 -0.0066350333303 -0.042946426042 -1.1974362027e-15 -0.0334139941
          -0.01282872403 -3.7887242532e-15 -0.0092981387415 -0.0938776863 -0.081146523017 -0.07407196421
          -0.060488135783 -0.11165598982 -0.10596052761 -0.10611757901 -0.096388398436 -0.11314657942
          -0.11447646798 -0.11351278997 -0.11179607611 -0.11217507464 -0.11592541566 -0.11246280526
          -0.11566977955 -0.11292990887 -0.11421226054 -0.11235914135 -0.11553725136 -0.11117250149
          -0.10545877097 -0.11316981788 -0.11140485226 -0.09324225827 -0.080593166766 -0.10551338997
          -0.095815258678 -0.042595050212 -0.033155775655 -0.073502775539 -0.060036334935 -1.1871253439e-15
          -3.7593436857e-15 -0.012717505119 -0.009226417341 -0.067717020357 -1.1963012256e-14 -0.055970388996
          -0.033085167409 -2.9470831547e-14 -0.023924337625 -0.095414365147 -0.10151022113 -0.092206576351
          -0.084861098269 -0.071608132319 -0.10537756966 -0.086561657352 -0.10833179763 -0.05011327487
          -0.095808006505 -0.058790135239 -0.10011380052 -0.042753919707 -0.09189781753 -0.044473929412
          -0.092850404918 -0.050255010936 -0.095730481083 -0.044561155169 -0.09282566835 -0.071700943054
          -0.10508038308 -0.058946836013 -0.099950515603 -0.09508937661 -0.10092462201 -0.086495614548
          -0.1078779884 -0.067295009194 -0.055526595845 -0.091662783855 -0.084230901517 -1.1902242335e-14
          -2.9283035941e-14 -0.032865858666 -0.023749099817 -0.024812975808 -4.8128472991e-14 -0.0680299961
          -0.026735577559 -3.7777985712e-14 -0.026403301052 0.08920465565 -0.054639646735 0.011389633984
          -0.089669980617 0.18064046026 0.012764033018 0.15155426946 -0.012101056317 0.21402807241
          0.042734444427 0.19959408251 0.029818333497 0.22528947327 0.053601603587 0.2231520897
          0.051320578932 0.21348213067 0.042331729239 0.22289330255 0.05112124246 0.17959258026
          0.012109340726 0.19876435348 0.029238343179 0.08788206321 -0.055032608776 0.15027672088
          -0.012731331415 -0.025189566423 -0.067848449602 0.010355685218 -0.089725370184 -4.7649534842e-14
          -3.6758601988e-14 -0.025857652843 -0.026071563019 1 0.5 0.19541884865
          1 -1.0098658732e-13 -0.0014037039462 1 0.41799272098 1
          0.36535321822 1 0.48154515091 1 0.4545107002 1
          0.5096224568 1 0.50109846638 1 0.51589066925 1
          0.51456712662 1 0.50923621891 1 0.51435621665 1
          0.48066396609 1 0.50048657278 1 0.41668129385 1
          0.45330756907 1 0.19383704971 1 0.36366353654 0.5
          -1.0105030552e-13 1 -0.002636090916
        </DataArray>
        <DataArray type="Float64" Name="v" format="ascii" RangeMin="-0.28938885937" RangeMax="0.29056496784">
          -1.0214483436e-16 1.6694796308e-16 0.0035913443062 6.7208592637e-16 8.121213688e-17 0.0010329403029
          0.0020753070602 4.1348477828e-16 0.00047107110268 1.9116616855e-16 0.0045976791665 8.0907834476e-16
          0.0013218375913 0.0043949852822 0.0012892758563 1.5607295096e-16 0.0038327509193 7.0244401889e-16
          0.001106673675 0.0043748064085 0.0012612246645 8.2429482956e-17 0.002118448789 4.8674755392e-16
          0.00060899983714 0.003056557399 0.00088367912308 -1.8032009196e-19 -2.4158942971e-06 1.6581075379e-16
          -7.0211365966e-07 0.001081647086 0.00031095871008 -8.2653842239e-17 -0.0021213003525 -1.6705628229e-16
          -0.0006097904416 -0.0010859376421 -0.00031220854327 -1.560172272e-16 -0.0038316709503 -4.8708194106e-16
          -0.0011062505474 -0.0030574292825 -0.00088385707376 -1.9097366299e-16 -0.0045948817295 -7.0186128987e-16
          -0.0013208918642 -0.0043723867172 -0.0012603773456 -1.6688922945e-16 -0.0035904958406 -8.0851803977e-16
          -0.0010326034511 -0.0043929064596 -0.0012885390435 1.0212077268e-16 -6.7234532795e-16 -8.1348834097e-17
          -4.1379443233e-16 -0.0020754292502 -0.00047106971758 0.011695322726 2.8824717977e-15 0.0071714574935
          0.0072086710553 6.733881927e-15 0.0042840887979 0.014566672136 0.0090964359878 0.013985290384
          0.0086817675387 0.012085098571 0.0075742259464 0.013818062462 0.0086504648721 0.0066709831387
          0.004189001816 0.0096249480341 0.0060392119735 -7.8130904081e-06 -4.5240764225e-06 0.0034048295336
          0.0021393042429 -0.0066801583426 -0.0041941794354 -0.003418687137 -0.0021472915241 -0.012081332535
          -0.0075717127346 -0.0096276516594 -0.0060405230805 -0.014556876843 -0.009090576336 -0.013809756157
          -0.008645341883 -0.011691815858 -0.0071695514438 -0.013977634475 -0.0086773485885 -2.8836691395e-15
          -6.7358921216e-15 -0.0072089391847 -0.0042841499323 0.02323787845 6.0609396298e-15 0.016984532077
          0.014616510375 1.762708077e-14 0.010589123329 0.028346575564 0.020908210783 0.027446365167
          0.020161284071 0.023212893735 0.017261316844 0.026700863255 0.019777057776 0.012705948724
          0.0094984288372 0.01839890491 0.013722830898 -2.0528509522e-05 -1.2419054121e-05 0.0064682730632
          0.0048432622084 -0.012731483326 -0.0095132015983 -0.0065051308474 -0.0048653619493 -0.023205571521
          -0.017255524491 -0.018408354368 -0.013727411009 -0.028320775917 -0.020892071941 -0.026680707537
          -0.01976372848 -0.023225601319 -0.016977836062 -0.027424311225 -0.020148095097 -6.0628597092e-15
          -1.7633590756e-14 -0.014614542412 -0.010588857227 0.039312856525 1.0310215641e-14 0.030476898142
          0.024868007628 3.2448713043e-14 0.019231022931 0.046886081808 0.036874274169 0.045950507466
          0.035858568822 0.037576591213 0.029917972073 0.043672515396 0.034568777439 0.020216273732
          0.016264754374 0.02950828109 0.023623816996 -5.1778160354e-05 -3.2248951715e-05 0.010233858239
          0.0082612660837 -0.020285226674 -0.016305976755 -0.0103281517 -0.0083195245438 -0.037567529281
          -0.029908331025 -0.029540133001 -0.023640475913 -0.046821036298 -0.036832701948 -0.043628333511
          -0.034537981397 -0.039267659867 -0.0304533773 -0.045886138308 -0.035820746994 -1.0310133024e-14
          -3.2451404548e-14 -0.024851560439 -0.019224274233 0.062129208825 1.6757771057e-14 0.049651542611
          0.039846112963 5.278581608e-14 0.031424337034 0.071999813033 0.058380511958 0.071664832418
          0.057655891859 0.055439887051 0.046076859896 0.065772733886 0.053963948648 0.028932763551
          0.024468905242 0.042798898402 0.035925480617 -0.00011801899028 -7.848998468e-05 0.014511393134
          0.012336375955 -0.02910218011 -0.024576628954 -0.014730063612 -0.012480265709 -0.055442506905
          -0.046069123417 -0.04289199332 -0.035979257252 -0.071854172316 -0.058280837663 -0.065688655933
          -0.053900590297 -0.062000617357 -0.049572520523 -0.071504644954 -0.057551619744 -1.6743156725e-14
          -5.2764239541e-14 -0.039782803231 -0.03139092007 0.097499288846 2.6395338259e-14 0.077195076506
          0.063438088693 8.6162188142e-14 0.049970026713 0.10456618363 0.087415104324 0.10860978356
          0.088141008832 0.075064999078 0.065270068665 0.092032349685 0.078612700093 0.037146942533
          0.03333167515 0.056307469275 0.049777231495 -0.00022978789557 -0.00016768175748 0.01832571197
          0.016603021122 -0.037503746536 -0.033581475585 -0.01875901695 -0.01691637734 -0.075132088854
          -0.06529145157 -0.056539111664 -0.049925002316 -0.10428172127 -0.087205800327 -0.091914114002
          -0.07850526233 -0.097147051663 -0.076983609541 -0.10823355752 -0.087893887265 -2.6333385959e-14
          -8.6017756714e-14 -0.06323765782 -0.049856750012 0.14679956846 4.4849817843e-14 0.12104476415
          0.10176544486 1.3448488119e-13 0.079275451326 0.14092179303 0.12258362129 0.15495991634
          0.13120223798 0.088706778552 0.083707980024 0.1162191506 0.10509506945 0.040503786091
          0.039867587815 0.063380150819 0.061462416811 -0.00035281109671 -0.00029721203624 0.019579518032
          0.019464431239 -0.041113667203 -0.040350682399 -0.020262875835 -0.020030658089 -0.088957266001
          -0.083849135123 -0.063849331206 -0.061803850744 -0.14054743614 -0.12222854432 -0.11617333969
          -0.1049870173 -0.14609480464 -0.12052361204 -0.15432532504 -0.1306856019 -4.4671468743e-14
          -1.3404509089e-13 -0.10128861448 -0.078959642214 0.22888980822 8.0210680619e-14 0.17884821246
          0.17676531759 2.4748148631e-13 0.13007754678 0.15370871301 0.1554843273 0.20534675469
          0.17973661984 0.07986259695 0.088349077019 0.11172626712 0.12134902339 0.03242108251
          0.038508283721 0.053864268957 0.061364334513 -0.00036773417541 -0.0003895716832 0.015028498824
          0.018349764314 -0.033119832956 -0.039224743304 -0.015754099488 -0.01911660055 -0.080386031269
          -0.088751847298 -0.054511228706 -0.061966564261 -0.15349070561 -0.15516046048 -0.11198472476
          -0.12144412362 -0.22753504566 -0.17784497506 -0.20446780897 -0.1789633013 -7.9725138403e-14
          -2.4630978845e-13 -0.17567912083 -0.12936165417 0.19621358418 2.3233734185e-13 0.26503613561
          0.27754416152 4.3270222745e-13 0.21747502507 0.088753487841 0.13124451922 0.12183631517
          0.204349843 0.035363677236 0.063264824744 0.059739980626 0.089801299335 0.013340288348
          0.023380963146 0.021386951825 0.040946920358 -0.00018371491416 -0.00030187086808 0.0064599681167
          0.01058883002 -0.013722372912 -0.023974888858 -0.0068322239445 -0.011184859491 -0.035830679955
          -0.063862939062 -0.021805928246 -0.041565606733 -0.089021571505 -0.1313463105 -0.060151899649
          -0.090237709564 -0.19566296407 -0.26389933424 -0.12207191368 -0.20392040584 -2.3103004093e-13
          -4.296512079e-13 -0.27573724855 -0.21610353081 2.2358145721e-14 1.3137166611e-13 0.070723712314
          6.3481902122e-13 1.152933405e-12 0.29056496784 1.3808993581e-14 0.041566688269 -1.5148047923e-14
          0.023567907042 -1.1110632841e-15 0.0084199070987 3.6619667508e-14 0.027972016331 1.210049611e-15
          0.0048416571646 -3.3894385024e-15 0.0039806242833 -1.5502299094e-18 -5.2929763098e-05 3.7429250105e-15
          0.0029359563022 -1.2070775473e-15 -0.004948155705 -3.7733127077e-15 -0.0030515032918 1.0678083256e-15
          -0.0086162288835 3.4320925107e-15 -0.0040865293907 -1.3635549689e-14 -0.041542518266 -3.6711567603e-14
          -0.028167849735 -2.3356446984e-14 -0.071384012547 1.4748299462e-14 -0.023829047422 -1.2998977097e-13
          -1.1453431261e-12 -6.3264898318e-13 -0.28938885937
        </DataArray>
        <DataArray type="Float64" Name="p" format="ascii" RangeMin="-88.159006161" RangeMax="87.710453816">
          -0.96154818822 -0.9979345684 -0.9621293674 -0.92300943929 -0.97974137831 -0.9800319679
          -0.94256940335 -0.94227881375 -0.96115539083 -0.93576514172 -0.87553928267 -0.96684985506
          -0.9056522122 -0.91883432504 -0.94284209005 -0.70400385096 -0.65435081682 -0.81988449634
          -0.67917733389 -0.76494504974 -0.79241477304 -0.35122055871 -0.32292030956 -0.52761220484
          -0.33707043414 -0.48863556319 -0.50812388402 0.067957099235 0.067944804344 -0.14163172974
          0.067950951789 -0.12748775261 -0.13455974117 0.48699760417 0.4586893526 0.2774773517
          0.47284347839 0.26331707847 0.27039721509 0.83948684601 0.78985562801 0.66324222509
          0.81467123701 0.6242724903 0.6437573577 1.0710355199 1.0108397987 0.95526118296
          1.0409376593 0.90034771335 0.92780444816 1.1331862617 1.0973920897 1.1021108908
          1.1152891757 1.0541159442 1.0781134175 1.0968156561 1.0582927618 1.1150009589
          1.0775542089 1.0778424257 1.0964216923 -1.0551513274 -0.97646131493 -1.0086403474
          -1.0158063212 -0.94973537711 -0.97918786226 -0.96403917596 -0.91978922932 -1.0095952517
          -0.96421478837 -0.71890042718 -0.686625622 -0.84146980157 -0.80320742566 -0.35682728269
          -0.33987379612 -0.53786385493 -0.51324970906 0.068136576538 0.068040690441 -0.14434535307
          -0.13591655284 0.49291631489 0.47580283375 0.28052644572 0.27192176209 0.85458006829
          0.82221784815 0.67374819159 0.64901034095 1.099406858 1.0551233283 0.97699346315
          0.93867058825 1.1905110099 1.1439515498 1.144958934 1.0995374391 1.1118586218
          1.0850756918 1.1511848159 1.1145136208 -1.319414217 -1.2057384341 -1.1872827722
          -1.2625763255 -1.0910998745 -1.1391913234 -1.2080557464 -1.0860474612 -1.2637349817
          -1.1366651167 -0.9033588266 -0.81112962689 -1.0557072865 -0.94858854404 -0.45440274524
          -0.40561501396 -0.67888078592 -0.60837232043 0.068689110597 0.068412843568 -0.19285681732
          -0.1686010852 0.59144201941 0.54217916715 0.330065565 0.30529600536 1.0396443779
          0.94711222308 0.81554319864 0.74464569512 1.343741511 1.2215741845 1.1916929444
          1.0843432038 1.4550552791 1.3227831445 1.3993983951 1.2721786645 1.3416238638
          1.2267412428 1.3983395714 1.2747621937 -1.8016375006 -1.6580492859 -1.5605258588
          -1.7298433932 -1.43189386 -1.4962098594 -1.6558167937 -1.43193627 -1.7287271471
          -1.4962310644 -1.2323473051 -1.0678530659 -1.4440820494 -1.249894668 -0.62714642177
          -0.5407745835 -0.92974686344 -0.80431382468 0.069980302506 0.069334706551 -0.27858305963
          -0.23571993848 0.7664522379 0.67894712865 0.4182162702 0.3741409176 1.3700884534
          1.2048664156 1.0682703457 0.94190677215 1.7922245809 1.5679830459 1.5811565172
          1.3864247308 1.9379845038 1.6965198914 1.8651045423 1.6322514687 1.794775198
          1.5681995309 1.8663798509 1.6323597112 -2.6341710467 -2.3624113328 -2.2179042736
          -2.4982911897 -2.0102303093 -2.1140672915 -2.3674255796 -2.0116211866 -2.5007983131
          -2.1147627301 -1.7494230538 -1.4908851795 -2.0584243167 -1.751253183 -0.88828417439
          -0.75771529808 -1.3188536141 -1.1243002388 0.072804089636 0.071392196071 -0.40774004238
          -0.343161551 1.0325517132 0.89950197557 0.55267790144 0.48544708582 1.8904666188
          1.6302775361 1.461509166 1.2648897558 2.5052162021 2.1487203915 2.1978414104
          1.8894989638 2.7709595924 2.3544720481 2.6380878973 2.2515962198 2.5010533741
          2.1479142861 2.6360064833 2.2511931671 -3.8735381618 -3.6571254035 -3.2538546042
          -3.7653317827 -3.0097683681 -3.1318114862 -3.5000217645 -2.933723672 -3.6867799632
          -3.0937891381 -2.4820601378 -2.1157415958 -2.9910409512 -2.5247326339 -1.2488369143
          -1.0685605444 -1.8654485261 -1.5921510701 0.078310796758 0.075557443197 -0.58526305879
          -0.49650155058 1.4032600921 1.2179059027 0.74078544442 0.64673167293 2.6300331733
          2.2602498961 2.0166466327 1.7390778994 3.6405286928 3.0728724474 3.135280933
          2.6665611717 4.0115614509 3.3912605217 3.8260450718 3.2320664845 3.7967048455
          3.1488791098 3.9041331482 3.2700698157 -6.3095649207 -5.3845286824 -5.0915515412
          -5.8470468015 -4.520827043 -4.8061892921 -5.0464628986 -4.2732423316 -5.6780139096
          -4.6823969364 -3.4713158052 -2.9766879715 -4.2588893519 -3.6249651515 -1.6681683011
          -1.4585026077 -2.5697420532 -2.2175952896 0.087377919558 0.082844358158 -0.79039519078
          -0.68782912479 1.8396018622 1.6214309772 0.9634898909 0.85213766766 3.633452098
          3.1317426357 2.7365269801 2.3765868064 5.192067944 4.4162983184 4.412760021
          3.774020477 6.44229257 5.2269270105 5.817180257 4.8216126644 5.5247155136
          4.6607101796 5.9835040418 4.943818595 -9.3054265766 -10.18331268 -7.8074957486
          -9.7443696283 -7.7839206813 -7.7957082149 -7.5185613697 -6.2825121341 -8.4119939731
          -7.0450039414 -4.3954438448 -3.933379825 -5.9570026073 -5.1079459796 -2.0883064046
          -1.8782373529 -3.2418751247 -2.9058085889 0.09726084705 0.092319383304 -0.99552277877
          -0.89295898477 2.2814899101 2.0605458862 1.1893753786 1.0764326347 4.5780903879
          4.105771243 3.429790149 3.0831585646 7.6792717481 6.4356698461 6.128681068
          5.2707205445 9.4344260818 7.9383593259 8.5568489149 7.187014586 10.310088356
          7.917401935 9.872257219 7.9278806304 -19.497853167 -18.331284282 -14.401639872
          -18.914568725 -14.257298481 -14.329469176 -8.147473817 -7.8330175933 -13.822663492
          -11.117328733 -5.280289852 -4.8378668484 -6.7138818345 -6.3354422209 -2.1591798348
          -2.1237431197 -3.7197348434 -3.4808049841 0.1016496528 0.099455249926 -1.028765091
          -1.0121439349 2.3578570208 2.3196734654 1.2297533368 1.2095643577 5.4766053029
          5.0273478454 3.9172311618 3.6735106554 8.3160230544 7.9976474013 6.8963141787
          6.5124976234 19.594329847 14.514377964 13.955176451 11.256012683 18.384022723
          14.34705554 18.989176285 14.430716752 -8.6345307547 -88.159006161 -14.066191961
          -48.396768458 -53.245145221 -33.655668591 -10.004609608 -9.0760417126 -9.3195701815
          -11.571116837 -3.9191783843 -4.5997341181 -6.9618939963 -6.8378879154 -2.2170237056
          -2.1881017702 -3.0681010449 -3.3939179442 0.095472117794 0.098560885298 -1.0607757939
          -1.0447704424 2.4108438764 2.3843504486 1.2531579971 1.2414556669 4.093920628
          4.7852629654 3.2523822522 3.584806707 10.149828395 9.2329257249 7.1218745117
          7.0090943452 8.7387561069 14.166542977 9.4442922511 11.699734351 87.710453816
          53.047238269 48.224604961 33.606890623
        </DataArray>
      </PointData>
      <CellData>
        <DataArray type="Int32" Name="libmesh_elem_id" format="ascii" RangeMin="0" RangeMax="99">
          0 1 2 3 4 5
          6 7 8 9 10 11
          12 13 14 15 16 17
          18 19 20 21 22 23
          24 25 26 27 28 29
          30 31 32 33 34 35
          36 37 38 39 40 41
          42 43 44 45 46 47
          48 49 50 51 52 53
          54 55 56 57 58 59
          60 61 62 63 64 65
          66 67 68 69 70 71
          72 73 74 75 76 77
          78 79 80 81 82 83
          84 85 86 87 88 89
          90 91 92 93 94 95
          96 97 98 99
        </DataArray>
        <DataArray type="Int32" Name="subdomain_id" format="ascii" RangeMin="0" RangeMax="0">
          0 0 0 0 0 0
          0 0 0 0 0 0
          0 0 0 0 0 0
          0 0 0 0 0 0
          0 0 0 0 0 0
          0 0 0 0 0 0
          0 0 0 0 0 0
          0 0 0 0 0 0
          0 0 0 0 0 0
          0 0 0 0 0 0
          0 0 0 0 0 0
          0 0 0 0 0 0
          0 0 0 0 0 0
          0 0 0 0 0 0
          0 0 0 0 0 0
          0 0 0 0 0 0
          0 0 0 0
        </DataArray>
        <DataArray type="Int32" Name="processor_id" format="ascii" RangeMin="0" RangeMax="0">
          0 0 0 0 0 0
          0 0 0 0 0 0
          0 0 0 0 0 0
          0 0 0 0 0 0
          0 0 0 0 0 0
          0 0 0 0 0 0
          0 0 0 0 0 0
          0 0 0 0 0 0
          0 0 0 0 0 0
          0 0 0 0 0 0
          0 0 0 0 0 0
          0 0 0 0 0 0
          0 0 0 0 0 0
          0 0 0 0 0 0
          0 0 0 0 0 0
          0 0 0 0 0 0
          0 0 0 0
        </DataArray>
      </CellData>
      <Points>
        <DataArray type="Float64" Name="Points" NumberOfComponents="3" format="ascii" RangeMin="0" RangeMax="1.4142135624">
          0 0 0 0.1 0 0
          0.1 0.1 0 0 0.1 0
          0.05 0 0 0.1 0.05 0
          0.05 0.1 0 0 0.05 0
          0.05 0.05 0 0.2 0 0
          0.2 0.1 0 0.15 0 0
          0.2 0.05 0 0.15 0.1 0
          0.15 0.05 0 0.3 0 0
          0.3 0.1 0 0.25 0 0
          0.3 0.05 0 0.25 0.1 0
          0.25 0.05 0 0.4 0 0
          0.4 0.1 0 0.35 0 0
          0.4 0.05 0 0.35 0.1 0
          0.35 0.05 0 0.5 0 0
          0.5 0.1 0 0.45 0 0
          0.5 0.05 0 0.45 0.1 0
          0.45 0.05 0 0.6 0 0
          0.6 0.1 0 0.55 0 0
          0.6 0.05 0 0.55 0.1 0
          0.55 0.05 0 0.7 0 0
          0.7 0.1 0 0.65 0 0
          0.7 0.05 0 0.65 0.1 0
          0.65 0.05 0 0.8 0 0
          0.8 0.1 0 0.75 0 0
          0.8 0.05 0 0.75 0.1 0
          0.75 0.05 0 0.9 0 0
          0.9 0.1 0 0.85 0 0
          0.9 0.05 0 0.85 0.1 0
          0.85 0.05 0 1 0 0
          1 0.1 0 0.95 0 0
          1 0.05 0 0.95 0.1 0
          0.95 0.05 0 0.1 0.2 0
          0 0.2 0 0.1 0.15 0
          0.05 0.2 0 0 0.15 0
          0.05 0.15 0 0.2 0.2 0
          0.2 0.15 0 0.15 0.2 0
          0.15 0.15 0 0.3 0.2 0
          0.3 0.15 0 0.25 0.2 0
          0.25 0.15 0 0.4 0.2 0
          0.4 0.15 0 0.35 0.2 0
          0.35 0.15 0 0.5 0.2 0
          0.5 0.15 0 0.45 0.2 0
          0.45 0.15 0 0.6 0.2 0
          0.6 0.15 0 0.55 0.2 0
          0.55 0.15 0 0.7 0.2 0
          0.7 0.15 0 0.65 0.2 0
          0.65 0.15 0 0.8 0.2 0
          0.8 0.15 0 0.75 0.2 0
          0.75 0.15 0 0.9 0.2 0
          0.9 0.15 0 0.85 0.2 0
          0.85 0.15 0 1 0.2 0
          1 0.15 0 0.95 0.2 0
          0.95 0.15 0 0.1 0.3 0
          0 0.3 0 0.1 0.25 0
          0.05 0.3 0 0 0.25 0
          0.05 0.25 0 0.2 0.3 0
          0.2 0.25 0 0.15 0.3 0
          0.15 0.25 0 0.3 0.3 0
          0.3 0.25 0 0.25 0.3 0
          0.25 0.25 0 0.4 0.3 0
          0.4 0.25 0 0.35 0.3 0
          0.35 0.25 0 0.5 0.3 0
          0.5 0.25 0 0.45 0.3 0
          0.45 0.25 0 0.6 0.3 0
          0.6 0.25 0 0.55 0.3 0
          0.55 0.25 0 0.7 0.3 0
          0.7 0.25 0 0.65 0.3 0
          0.65 0.25 0 0.8 0.3 0
          0.8 0.25 0 0.75 0.3 0
          0.75 0.25 0 0.9 0.3 0
          0.9 0.25 0 0.85 0.3 0
          0.85 0.25 0 1 0.3 0
          1 0.25 0 0.95 0.3 0
          0.95 0.25 0 0.1 0.4 0
          0 0.4 0 0.1 0.35 0
          0.05 0.4 0 0 0.35 0
          0.05 0.35 0 0.2 0.4 0
          0.2 0.35 0 0.15 0.4 0
          0.15 0.35 0 0.3 0.4 0
          0.3 0.35 0 0.25 0.4 0
          0.25 0.35 0 0.4 0.4 0
          0.4 0.35 0 0.35 0.4 0
          0.35 0.35 0 0.5 0.4 0
          0.5 0.35 0 0.45 0.4 0
          0.45 0.35 0 0.6 0.4 0
          0.6 0.35 0 0.55 0.4 0
          0.55 0.35 0 0.7 0.4 0
          0.7 0.35 0 0.65 0.4 0
          0.65 0.35 0 0.8 0.4 0
          0.8 0.35 0 0.75 0.4 0
          0.75 0.35 0 0.9 0.4 0
          0.9 0.35 0 0.85 0.4 0
          0.85 0.35 0 1 0.4 0
          1 0.35 0 0.95 0.4 0
          0.95 0.35 0 0.1 0.5 0
          0 0.5 0 0.1 0.45 0
          0.05 0.5 0 0 0.45 0
          0.05 0.45 0 0.2 0.5 0
          0.2 0.45 0 0.15 0.5 0
          0.15 0.45 0 0.3 0.5 0
          0.3 0.45 0 0.25 0.5 0
          0.25 0.45 0 0.4 0.5 0
          0.4 0.45 0 0.35 0.5 0
          0.35 0.45 0 0.5 0.5 0
          0.5 0.45 0 0.45 0.5 0
          0.45 0.45 0 0.6 0.5 0
          0.6 0.45 0 0.55 0.5 0
          0.55 0.45 0 0.7 0.5 0
          0.7 0.45 0 0.65 0.5 0
          0.65 0.45 0 0.8 0.5 0
          0.8 0.45 0 0.75 0.5 0
          0.75 0.45 0 0.9 0.5 0
          0.9 0.45 0 0.85 0.5 0
          0.85 0.45 0 1 0.5 0
          1 0.45 0 0.95 0.5 0
          0.95 0.45 0 0.1 0.6 0
          0 0.6 0 0.1 0.55 0
          0.05 0.6 0 0 0.55 0
          0.05 0.55 0 0.2 0.6 0
          0.2 0.55 0 0.15 0.6 0
          0.15 0.55 0 0.3 0.6 0
          0.3 0.55 0 0.25 0.6 0
          0.25 0.55 0 0.4 0.6 0
          0.4 0.55 0 0.35 0.6 0
          0.35 0.55 0 0.5 0.6 0
          0.5 0.55 0 0.45 0.6 0
          0.45 0.55 0 0.6 0.6 0
          0.6 0.55 0 0.55 0.6 0
          0.55 0.55 0 0.7 0.6 0
          0.7 0.55 0 0.65 0.6 0
          0.65 0.55 0 0.8 0.6 0
          0.8 0.55 0 0.75 0.6 0
          0.75 0.55 0 0.9 0.6 0
          0.9 0.55 0 0.85 0.6 0
          0.85 0.55 0 1 0.6 0
          1 0.55 0 0.95 0.6 0
          0.95 0.55 0 0.1 0.7 0
          0 0.7 0 0.1 0.65 0
          0.05 0.7 0 0 0.65 0
          0.05 0.65 0 0.2 0.7 0
          0.2 0.65 0 0.15 0.7 0
          0.15 0.65 0 0.3 0.7 0
          0.3 0.65 0 0.25 0.7 0
          0.25 0.65 0 0.4 0.7 0
          0.4 0.65 0 0.35 0.7 0
          0.35 0.65 0 0.5 0.7 0
          0.5 0.65 0 0.45 0.7 0
          0.45 0.65 0 0.6 0.7 0
          0.6 0.65 0 0.55 0.7 0
          0.55 0.65 0 0.7 0.7 0
          0.7 0.65 0 0.65 0.7 0
          0.65 0.65 0 0.8 0.7 0
          0.8 0.65 0 0.75 0.7 0
          0.75 0.65 0 0.9 0.7 0
          0.9 0.65 0 0.85 0.7 0
          0.85 0.65 0 1 0.7 0
          1 0.65 0 0.95 0.7 0
          0.95 0.65 0 0.1 0.8 0
          0 0.8 0 0.1 0.75 0
          0.05 0.8 0 0 0.75 0
          0.05 0.75 0 0.2 0.8 0
          0.2 0.75 0 0.15 0.8 0
          0.15 0.75 0 0.3 0.8 0
          0.3 0.75 0 0.25 0.8 0
          0.25 0.75 0 0.4 0.8 0
          0.4 0.75 0 0.35 0.8 0
          0.35 0.75 0 0.5 0.8 0
          0.5 0.75 0 0.45 0.8 0
          0.45 0.75 0 0.6 0.8 0
          0.6 0.75 0 0.55 0.8 0
          0.55 0.75 0 0.7 0.8 0
          0.7 0.75 0 0.65 0.8 0
          0.65 0.75 0 0.8 0.8 0
          0.8 0.75 0 0.75 0.8 0
          0.75 0.75 0 0.9 0.8 0
          0.9 0.75 0 0.85 0.8 0
          0.85 0.75 0 1 0.8 0
          1 0.75 0 0.95 0.8 0