<?xml version="1.0"?>
<VTKFile type="UnstructuredGrid" version="0.1" byte_order="LittleEndian" compressor="vtkZLibDataCompressor">
  <UnstructuredGrid>
    <Piece NumberOfPoints="441" NumberOfCells="100">
      <PointData>
        <DataArray type="Float64" Name="u" format="ascii" RangeMin="-0.17659726709" RangeMax="1">
          1.6416326632e-16 -3.0865566702e-16 -0.0042463788912 -2.7359154151e-17 2.8722178583e-16 -0.0018505019385
          -0.0010975056011 5.7449028284e-16 -0.00027148325312 -2.6116265873e-15 -0.014949874092 -5.1126357474e-15
          -0.0077674631917 -0.0089944280053 -0.0043169263102 -5.6297282416e-15 -0.027486956385 -1.6619387085e-14
          -0.015079097643 -0.021331373303 -0.011490613008 -7.9023928747e-15 -0.037003436968 -2.7441874767e-14
          -0.020655653809 -0.032890824078 -0.01826753785 -8.7361823487e-15 -0.040495156504 -3.379555409e-14
          -0.022705860155 -0.039652598103 -0.022244209112 -7.8976152271e-15 -0.036988483541 -3.3784188175e-14
          -0.020646295909 -0.039643464021 -0.022238306848 -5.6258597021e-15 -0.02747371441 -2.7421447884e-14
          -0.015071267561 -0.032873851291 -0.018256861603 -2.6122172093e-15 -0.014949686735 -1.6612941748e-14
          -0.0077680972453 -0.021324378815 -0.01148697289 -3.1031754897e-16 -0.0042508423887 -5.1202395953e-15
          -0.001853609118 -0.0089989731075 -0.0043205998555 1.6411851744e-16 -2.8165219164e-17 2.8479089946e-16
          5.7244662161e-16 -0.0010997452528 -0.00027288679433 -0.0085275497146 -1.4721177161e-16 -0.0064797003632
          -0.0023334775584 -4.5768956829e-16 -0.0017726015297 -0.027652855682 -0.021473587163 -0.017343411092
          -0.013291427325 -0.048434230942 -0.038299810473 -0.038358901983 -0.030087687429 -0.063737817388
          -0.050902321385 -0.057145084504 -0.04546114807 -0.069278905912 -0.055502615972 -0.067923615274
          -0.054383460295 -0.063697049852 -0.050878751835 -0.06789991878 -0.054369374695 -0.048388815904
          -0.038276475315 -0.057095565187 -0.045433490084 -0.027635214882 -0.021468992009 -0.038325017871
          -0.030072782367 -0.0085298682052 -0.0064843932327 -0.017340143271 -0.013294849257 -1.4864691353e-16
          -4.6203256018e-16 -0.0023360387573 -0.0017752763427 -0.012847441109 -2.1224401215e-16 -0.010585581718
          -0.0035319979378 -6.8257017579e-16 -0.0028904568325 -0.040751353301 -0.033936206296 -0.025888057105
          -0.021437531922 -0.069732194243 -0.058709394464 -0.055853146133 -0.046768564965 -0.09026455901
          -0.076627780756 -0.081501216865 -0.068940849692 -0.0975170081 -0.083044325464 -0.095753431819
          -0.081477482015 -0.090140661834 -0.076555247381 -0.095684153954 -0.081436228909 -0.06957203708
          -0.058621171501 -0.081343335817 -0.068850261228 -0.040653191142 -0.033889888252 -0.05571407643
          -0.046696161213 -0.012826229497 -0.010580540042 -0.025834401893 -0.021417110791 -2.1487250621e-16
          -6.9145259092e-16 -0.0035299725975 -0.0028922412041 -0.018625649434 -3.9243704181e-16 -0.015485025435
          -0.0052424510796 -1.2356028871e-15 -0.0043280897746 -0.057471647071 -0.048500200006 -0.037013006476
          -0.030978953538 -0.095573068567 -0.081984089043 -0.077662713525 -0.06608626536 -0.12104669196
          -0.1051026979 -0.11033884899 -0.0952983493 -0.12968403635 -0.11312897965 -0.12762236265
          -0.11119259532 -0.12074308624 -0.10490223251 -0.12745666049 -0.11108198343 -0.095146481204
          -0.081712891867 -0.10993989357 -0.095038592274 -0.057162560954 -0.048317504605 -0.07726584129
          -0.065841506011 -0.018529445514 -0.015434715934 -0.036815639862 -0.030869223872 -3.9319768258e-16
          -1.242102604e-15 -0.0052190662792 -0.0043175404459 -0.027047704612 -4.7664437463e-16 -0.022396160404
          -0.0075618051781 -1.5098699087e-15 -0.0061591086954 -0.079498163749 -0.067873020624 -0.052716168577
          -0.044294870973 -0.12561418654 -0.11037584697 -0.10460260864 -0.09062885378 -0.15330183988
          -0.137601333 -0.1420319362 -0.12631335932 -0.16197298247 -0.14652602969 -0.15997149635
          -0.144424839 -0.15273187081 -0.13716968977 -0.15966699357 -0.14419152233 -0.12474908578
          -0.10974657011 -0.14125948389 -0.12573793537 -0.078789908292 -0.067386888972 -0.10375164828
          -0.090026604739 -0.026788882499 -0.02223267182 -0.052221656853 -0.043968736904 -4.7692297212e-16
          -1.5170202786e-15 -0.0074951945442 -0.0061208137923 -0.039337087423 -1.6043058217e-15 -0.032781914897
          -0.01221616573 -4.6145613017e-15 -0.0099239361393 -0.10463255761 -0.092003464539 -0.072737728052
          -0.062079695609 -0.15034907407 -0.13993148512 -0.13130879255 -0.11889772189 -0.17130492022
          -0.16585617719 -0.16342311656 -0.15556929563 -0.17659726709 -0.17343689768 -0.17549462495
          -0.17174175063 -0.17055779202 -0.16516499541 -0.17510969366 -0.17137858361 -0.14907476126
          -0.13882814869 -0.16235824686 -0.15461175871 -0.10341045893 -0.091038723839 -0.12995324725
          -0.11777557951 -0.038806977646 -0.03239595589 -0.071806419896 -0.061379954821 -1.5794325609e-15
          -4.5606417691e-15 -0.012050762815 -0.0098083317136 -0.054928000146 -1.3119696586e-15 -0.046562846553
          -0.016552948183 -4.0686528813e-15 -0.013112298569 -0.12035095895 -0.11582528625 -0.094799280399
          -0.085064043757 -0.13954293244 -0.15255322131 -0.13470265705 -0.13844304179 -0.13620420787
          -0.16413269815 -0.1390924551 -0.16061633269 -0.13261962367 -0.16562209406 -0.1335926604
          -0.16542296003 -0.13580330491 -0.16346412331 -0.13340762937 -0.16508809944 -0.13856967973
          -0.15128222826 -0.13842328468 -0.15962008416 -0.11899731512 -0.1144202437 -0.13344353858
          -0.13699161282 -0.054142870415 -0.045888614136 -0.093560444446 -0.08390966444 -1.277923587e-15
          -3.9686445596e-15 -0.016299217584 -0.012914259284 -0.068291674843 -1.2012119657e-14 -0.064253244547
          -0.034478267165 -3.0252613147e-14 -0.027128746022 -0.077108270265 -0.11107002624 -0.086522801259
          -0.096120142219 -0.021434132386 -0.10132457416 -0.052119332065 -0.11208907373 0.023308214303
          -0.077460169091 0.0047590988045 -0.088141354365 0.03865854067 -0.06806077563 0.035040628356
          -0.070356358174 0.022598199151 -0.077553018454 0.034644976917 -0.070438722003 -0.022307774768
          -0.1010897126 0.0038642206497 -0.088136319294 -0.077166774764 -0.11018486271 -0.052694583666
          -0.11150902218 -0.067770896369 -0.063459420681 -0.086036695414 -0.095069594111 -1.1886762697e-14
          -2.986348213e-14 -0.034165210466 -0.026795991102 0.0066856501298 -4.9047580984e-14 -0.055456400514
          -0.021370414318 -3.8975815423e-14 -0.024642587734 0.18960581125 0.0034005954914 0.077605357832
          -0.057354768014 0.33298763504 0.11891336936 0.28163184471 0.072313727058 0.39350015198
          0.17741792526 0.36813355793 0.1526977713 0.41301003443 0.1975222166 0.4089799426
          0.19308723743 0.39213370029 0.17616834297 0.40831759477 0.19245690439 0.3304474091
          0.11687713489 0.36609749096 0.15093260834 0.18646873405 0.0017364173285 0.27863459775
          0.070263835256 0.005439974629 -0.055624152337 0.075086497317 -0.058219086303 -4.8565307844e-14
          -3.7788443173e-14 -0.020708008415 -0.024361533406 1 0.5 0.24575982202
          1 -8.2964131545e-14 0.017090443019 1 0.52928297814 1
          0.45060439318 1 0.62768432328 1 0.58593693821 1
          0.67283256426 1 0.65776719141 1 0.68384716106 1
          0.68140710105 1 0.67202439283 1 0.68097218716 1
          0.62591248825 1 0.65650944596 1 0.52679358823 1
          0.58364269804 1 0.2431585206 1 0.44771074799 0.5
          -8.3087721026e-14 1 0.015435125326
        </DataArray>
        <DataArray type="Float64" Name="v" format="ascii" RangeMin="-0.34486558823" RangeMax="0.34734762934">
          -1.6526710895e-16 4.6623924351e-17 0.004176174947 2.6372054149e-16 -5.5440801018e-16 0.0010787295391
          0.0018416870567 -2.9807487535e-16 0.00027368697356 1.6355677168e-16 0.0069133851334 5.6036686597e-16
          0.0018948524598 0.0059619231167 0.0016399460623 1.6292284116e-16 0.0065010021371 6.8722609153e-16
          0.0018067673343 0.0070658987767 0.0019607353455 9.1526860926e-17 0.0038002856344 5.3349010531e-16
          0.0010554567211 0.0053658661421 0.0014982780518 -3.4871072019e-19 -5.9131975132e-06 1.8780494515e-16
          -1.5933658725e-06 0.0019647758354 0.00054689521477 -9.1806233103e-17 -0.0038054714392 -1.9001840241e-16
          -0.0010566269317 -0.0019747605749 -0.00054956910364 -1.6249707495e-16 -0.0064949004158 -5.3310953245e-16
          -0.0018045790438 -0.0053649466051 -0.0014976027038 -1.6312754176e-16 -0.0069066300559 -6.8514107055e-16
          -0.0018926360858 -0.0070576085474 -0.0019578927387 -4.6922461422e-17 -0.0041789234447 -5.6016085253e-16
          -0.0010795182672 -0.0059598540866 -0.0016392356486 1.6532371305e-16 -2.6607342257e-16 5.5314966039e-16
          2.9570775863e-16 -0.0018459721925 -0.00027479602571 0.015945800148 2.6657704813e-15 0.0091005853142
          0.0084282152131 5.1255964457e-15 0.0044523688523 0.024019211511 0.014380796907 0.021278945517
          0.012535090557 0.022051497197 0.013379383175 0.024166225128 0.014592763791 0.012790422195
          0.0078009483045 0.018098124432 0.011017130263 -2.1704215437e-05 -1.1444206495e-05 0.0065994963554
          0.0040307402194 -0.012811080449 -0.0078105722533 -0.006636621315 -0.0040499481382 -0.022031548897
          -0.013366145245 -0.018097374282 -0.011014495759 -0.023991792938 -0.014365507238 -0.024136462047
          -0.014574844905 -0.015948990745 -0.0091043809094 -0.021265317419 -0.012528884219 -2.6745190581e-15
          -5.1448373206e-15 -0.0084401271054 -0.004459883824 0.035027956014 6.9508997193e-15 0.024508766837
          0.019605925539 1.8815441981e-14 0.013406053101 0.049846314841 0.035754175809 0.0451659652
          0.03205970608 0.044509730842 0.032401022696 0.049354055706 0.035693922247 0.025440551323
          0.018674348437 0.036215869839 0.026490855439 -6.6680192776e-05 -3.7273579124e-05 0.013069080886
          0.009618049487 -0.025515745914 -0.018712259602 -0.013186664282 -0.0096825894357 -0.044470872612
          -0.032370798733 -0.036233428061 -0.026493554246 -0.049761890528 -0.035704759706 -0.049277852675
          -0.035644552014 -0.035007478927 -0.024505118451 -0.045105507019 -0.0320294087 -6.9657798688e-15
          -1.8862335017e-14 -0.019616558971 -0.013419493803 0.062846700756 1.31477849e-14 0.04756861655
          0.036042269708 3.97286e-14 0.026982596088 0.085603050713 0.066326718864 0.079191840275
          0.060667288836 0.074015812325 0.058345003707 0.083292710082 0.065138332972 0.041385428048
          0.033029839968 0.059491873305 0.04721558538 -0.00018343746197 -0.00011072050496 0.021103344441
          0.016913929477 -0.04161887817 -0.033162163063 -0.021434554179 -0.017111434839 -0.073962838824
          -0.058294407793 -0.059586359981 -0.047257356479 -0.08537377518 -0.066183918594 -0.083122238271
          -0.065020462855 -0.062713327843 -0.047509885373 -0.078980975555 -0.060550645662 -1.3155893253e-14
          -3.9775790598e-14 -0.036004093332 -0.026978627862 0.10210574095 2.2597042503e-14 0.080806125655
          0.060069134182 6.9849628794e-14 0.046723152295 0.13284322576 0.10762972883 0.12574034764
          0.10067877788 0.10968089499 0.091249908923 0.12623805588 0.10365755458 0.059329073875
          0.050277067157 0.086535631166 0.072746915875 -0.00042191142534 -0.0002828830688 0.029921744526
          0.025510884555 -0.059916334371 -0.050652740792 -0.030698362866 -0.026026220113 -0.10965810678
          -0.091198672345 -0.086838928278 -0.072919567332 -0.13232471378 -0.10727529314 -0.12591748183
          -0.10341537924 -0.10167503229 -0.080553562097 -0.12518775412 -0.10032580874 -2.2550865758e-14
          -6.9798905099e-14 -0.059862186277 -0.04662384987 0.15858334936 3.6613869939e-14 0.12720975588
          0.096015157268 1.1780796367e-13 0.075931225396 0.18960512001 0.16049305208 0.18748932947
          0.1543548656 0.1456775244 0.12832494776 0.17339043812 0.14998120582 0.074829147084
          0.067881026301 0.11170944229 0.099985555658 -0.0007801820302 -0.00059165804174 0.037105654188
          0.033979478823 -0.076006914551 -0.068738577572 -0.038567769695 -0.035078311815 -0.14583507041
          -0.12836232747 -0.11243574053 -0.10046992859 -0.18865441827 -0.15976873896 -0.172946867
          -0.1495829068 -0.15747922054 -0.12651049391 -0.1862840092 -0.15352281654 -3.6404686324e-14
          -1.1733943317e-13 -0.095377201436 -0.075559290446 0.22891155675 6.0306892093e-14 0.19331033602
          0.14812103388 1.857747345e-13 0.11884111313 0.24290096825 0.21797237594 0.25507429429
          0.22204087626 0.16522883653 0.15936355048 0.2086866425 0.19416187407 0.078684750806
          0.07899539743 0.12115670017 0.11977919583 -0.0010867171245 -0.00097011267703 0.038206279872
          0.038762357524 -0.080492187528 -0.080528915709 -0.040290540167 -0.040599304078 -0.16583748209
          -0.15972587696 -0.1224735916 -0.12081199189 -0.24169439651 -0.21684035246 -0.20840393827
          -0.19375119147 -0.22690206449 -0.19175367201 -0.25319537602 -0.22046477615 -5.9766075477e-14
          -1.8437537257e-13 -0.14675715852 -0.11788178812 0.32077032035 1.0098077259e-13 0.26852151214
          0.23369301437 3.1903918834e-13 0.18265166444 0.24625172717 0.25766030398 0.30604391496
          0.28441533689 0.13992194311 0.15997712542 0.18895364973 0.21057884969 0.059943094432
          0.072824198416 0.097088206042 0.11420511727 -0.0009933180157 -0.0011250360622 0.02809981601
          0.034878194687 -0.061768950734 -0.074807889805 -0.030046042622 -0.037067590984 -0.1410853463
          -0.16092571122 -0.098684720613 -0.11578738946 -0.24553610913 -0.25662194953 -0.18936829182
          -0.21063581028 -0.31769869753 -0.26597229428 -0.30391995692 -0.28233094383 -9.9831412856e-14
          -3.1588675178e-13 -0.23122764357 -0.18080137186 0.25170651691 2.4826955249e-13 0.34734762934
          0.32012637292 5.1463955141e-13 0.27290026058 0.13023632948 0.20262309672 0.17193394075
          0.28736817296 0.058259887702 0.10602248191 0.091746302031 0.14670752563 0.022978130534
          0.042045275933 0.036868217327 0.07085941552 -0.00041357594002 -0.00073276399869 0.01101268015
          0.01935267305 -0.023815775759 -0.043445536642 -0.011846959098 -0.020793662036 -0.059159543209
          -0.10721891642 -0.037734191034 -0.072225786781 -0.13061357925 -0.20255444528 -0.09249387766
          -0.14742859154 -0.25059603094 -0.34486558823 -0.17200745208 -0.28618123282 -2.4637290536e-13
          -5.0877246969e-13 -0.31742157206 -0.2701716208 2.5817143867e-14 1.3018633225e-13 0.092056900422
          6.4691076127e-13 1.1755104611e-12 0.31099880529 1.4753136037e-14 0.054945502597 -1.0350497668e-14
          0.039337281336 -1.0511816021e-15 0.014867102109 3.9423696309e-14 0.038051743349 1.2766915311e-15
          0.0075755054025 -3.6284398245e-15 0.0080802025047 1.6657148364e-17 -0.00010046206265 4.0817309662e-15
          0.0043101541771 -1.2529646213e-15 -0.0077911991339 -4.0085966802e-15 -0.0045346851381 1.0581527865e-15
          -0.015171879415 3.8520076401e-15 -0.0082712936569 -1.4537429014e-14 -0.054944940537 -3.9409673622e-14
          -0.038384373021 -2.6651844048e-14 -0.092585992328 1.0356385853e-14 -0.039512401163 -1.2865955636e-13
          -1.1662680543e-12 -6.4372465308e-13 -0.30936936246
        </DataArray>
        <DataArray type="Float64" Name="p" format="ascii" RangeMin="-83.936097233" RangeMax="83.261742799">
          -0.42167557755 -0.49064708653 -0.42319021004 -0.35109092134 -0.45616133204 -0.45691864828
          -0.38714056569 -0.38638324944 -0.42165094886 -0.56184399074 -0.44557738308 -0.52624553864
          -0.50371068691 -0.43438379656 -0.4803146676 -0.47715047868 -0.37010378913 -0.51949723471
          -0.4236271339 -0.4078405861 -0.46366891041 -0.26064195988 -0.19720032141 -0.36889621928
          -0.22892114064 -0.28365205527 -0.32627413727 0.03221207679 0.032165008004 -0.11421494154
          0.032188542397 -0.082517656702 -0.098366299123 0.32477690628 0.26130679844 0.17849449153
          0.29304185236 0.14673590322 0.16261519738 0.54077970729 0.43381249126 0.43277830679
          0.48729609928 0.34755964485 0.39016897582 0.62537379875 0.50918522309 0.58307675302
          0.56727951092 0.47149885718 0.5272878051 0.55444499159 0.48700267718 0.58990939517
          0.52072383438 0.49809395014 0.54400167265 0.48550369784 0.41491698731 0.51997434471
          0.45021034258 0.45095983225 0.48546708848 -0.40771581728 -0.25639991246 -0.41545301366
          -0.33205786487 -0.3037454169 -0.35959921528 -0.44581343496 -0.44569540902 -0.42676462612
          -0.43057421134 -0.36781394628 -0.3689588677 -0.40681369062 -0.40732713836 -0.19434572713
          -0.19577302427 -0.2810798367 -0.28236594599 0.032644181785 0.032404594894 -0.080850772672
          -0.081684214687 0.25922741221 0.26026710532 0.145935797 0.14633585011 0.43192311714
          0.4328678042 0.34557526467 0.34656745476 0.50964871574 0.50941696942 0.47078591644
          0.47114238681 0.47199328503 0.4794979811 0.49082100038 0.49445747526 0.32077583878
          0.36784641304 0.3963845619 0.42367219707 -0.50568931796 -0.27407030248 -0.45670256762
          -0.38987981022 -0.26523510747 -0.36096883754 -0.56278028061 -0.50429685779 -0.53423479929
          -0.4804997127 -0.4638445667 -0.41582925649 -0.51331242366 -0.46006305714 -0.24553938398
          -0.21994255556 -0.35469197534 -0.31788590602 0.034307227881 0.033475704833 -0.10561607805
          -0.093233425361 0.31327783137 0.28625262179 0.17379252963 0.15986416331 0.52979789623
          0.48086050668 0.4215378638 0.38355656424 0.62774896477 0.56869884026 0.5787734305
          0.52477967347 0.57126958247 0.52163143375 0.59950927362 0.545165137 0.34044851211
          0.33061217545 0.45585904729 0.4261218046 -0.76999605443 -0.4563277971 -0.6378426862
          -0.61316192576 -0.36519904979 -0.50152086799 -0.84497756264 -0.70387892163 -0.80748680854
          -0.67086080391 -0.67830346074 -0.57107401372 -0.76164051169 -0.63747646767 -0.35800836865
          -0.30177387632 -0.5181559147 -0.43642394502 0.038527677698 0.03641745279 -0.15974034548
          -0.13267821176 0.43317072188 0.37322427663 0.23584919979 0.20482086471 0.74919572026
          0.63949680825 0.59118322107 0.50636054244 0.91272355871 0.77023626174 0.83095963948
          0.70486653499 0.83842142394 0.70484550321 0.87557249132 0.73754088247 0.52653742982
          0.43349297097 0.68247942688 0.56916923709 -1.3407252815 -0.83145887773 -1.055360668
          -1.0860920796 -0.64389333742 -0.84962700269 -1.3504213843 -1.0976994735 -1.3455733329
          -1.0765300707 -1.0497356572 -0.86401955898 -1.2000785208 -0.98085951623 -0.54049055997
          -0.44924946431 -0.79511310859 -0.65663451165 0.047742684102 0.0431351809 -0.24637393794
          -0.20305714171 0.63198572443 0.53257822315 0.33986420426 0.28785670203 1.1317359976
          0.94046585894 0.88186086103 0.73652204105 1.4235654861 1.1681445224 1.2776507419
          1.0543051907 1.4119866105 1.1252040172 1.4177760483 1.1466742698 0.90844499569
          0.71749121275 1.1602158031 0.921347615 -2.2698276057 -1.7594103468 -1.8052764436
          -2.0146189763 -1.2954346123 -1.5503555279 -2.2324417332 -1.7914315587 -2.2511346694
          -1.7983540012 -1.5976011589 -1.3236684081 -1.915021446 -1.5575499834 -0.79800063659
          -0.66924559828 -1.1978008978 -0.99645700317 0.064458655369 0.056100669736 -0.36677099061
          -0.30657246427 0.9200375577 0.77601164106 0.49224810653 0.4160561554 1.700805615
          1.4162708063 1.3104215864 1.0961412237 2.3144824927 1.8690239894 2.0076440539
          1.6426473979 2.3447227635 1.878354687 2.3296026281 1.8736893382 1.840440151
          1.3744425734 2.0925814573 1.6263986302 -4.3746960252 -3.1388749066 -3.3222618155
          -3.7567854659 -2.4491426267 -2.8857022211 -3.4643217143 -2.8483817237 -3.9195088698
          -3.0853217696 -2.3469731041 -1.9722871315 -2.9056474092 -2.4103344276 -1.0838178343
          -0.94090923543 -1.7153954692 -1.4565981835 0.087386845432 0.0759227504 -0.49821549441
          -0.43249324251 1.2485859202 1.084311739 0.66798638284 0.58011724469 2.4835976418
          2.0922016284 1.866091781 1.5882566837 3.5587872028 2.9366348478 3.0211924223
          2.5144182381 4.4375910497 3.3911569066 3.9981891263 3.1638958772 3.2167469735
          2.5285935623 3.8271690116 2.9598752344 -6.9356291936 -7.6085954839 -5.6551626094
          -7.2721123388 -5.3737351953 -5.5144489023 -5.5156710731 -4.4899963937 -6.2256501334
          -5.0725795016 -2.9607766101 -2.6538748571 -4.2382238416 -3.5719356254 -1.3385769171
          -1.2111973757 -2.1496767636 -1.9325361164 0.10423769064 0.095812268036 -0.61716961323
          -0.55769255382 1.5385433861 1.3935646532 0.82139053837 0.74468846061 3.1260787369
          2.8048381893 2.3323110615 2.0992014213 5.6221937022 4.5904904525 4.3741362196
          3.6976643209 6.981758679 5.7096748644 6.3019761906 5.1500826584 7.6439750333
          5.4303610034 7.3128668561 5.5700179339 -16.462197902 -15.738031702 -11.698913548
          -16.100114802 -11.673313593 -11.68611357 -5.5221379104 -5.5189044917 -10.992167906
          -8.6089090197 -3.4380738499 -3.19942523 -4.4801058801 -4.3591648609 -1.21000904
          -1.2742929785 -2.3240414449 -2.2368591043 0.10217148401 0.10320458732 -0.55391877797
          -0.5855441956 1.3980768003 1.4683100932 0.75012414215 0.78575734026 3.598455804
          3.3622672705 2.4982663021 2.4152886818 5.5992961744 5.6107449383 4.5988759892
          4.4865061044 16.415367951 11.698563315 11.007332063 8.6546541268 15.630891071
          11.637433052 16.023129511 11.667998184 -4.2716642413 -83.936097233 -10.366931071
          -44.103880737 -49.837064467 -30.101997769 -6.500984619 -6.0115612647 -5.3863244302
          -8.1892461681 -1.5471012467 -2.4925875483 -4.0240429328 -4.2520744065 -1.0707336431
          -1.1403713415 -1.3089174449 -1.8164794449 0.086302684968 0.094237084489 -0.49221547907
          -0.52306712852 1.2414332735 1.3197550369 0.66386797923 0.70699606069 1.657606765
          2.6280312845 1.4495200192 1.9738931607 6.5437324438 6.0715143091 4.1006696044
          4.3497727968 4.1916995257 10.303533739 5.3677159847 8.1875240238 83.261742799
          49.446316935 43.726721163 29.874925337
        </DataArray>
      </PointData>
      <CellData>
        <DataArray type="Int32" Name="libmesh_elem_id" format="ascii" RangeMin="0" RangeMax="99">
          0 1 2 3 4 5
          6 7 8 9 10 11
          12 13 14 15 16 17
          18 19 20 21 22 23
          24 25 26 27 28 29
          30 31 32 33 34 35
          36 37 38 39 40 41
          42 43 44 45 46 47
          48 49 50 51 52 53
          54 55 56 57 58 59
          60 61 62 63 64 65
          66 67 68 69 70 71
          72 73 74 75 76 77
          78 79 80 81 82 83
          84 85 86 87 88 89
          90 91 92 93 94 95
          96 97 98 99
        </DataArray>
        <DataArray type="Int32" Name="subdomain_id" format="ascii" RangeMin="0" RangeMax="0">
          0 0 0 0 0 0
          0 0 0 0 0 0
          0 0 0 0 0 0
          0 0 0 0 0 0
          0 0 0 0 0 0
          0 0 0 0 0 0
          0 0 0 0 0 0
          0 0 0 0 0 0
          0 0 0 0 0 0
          0 0 0 0 0 0
          0 0 0 0 0 0
          0 0 0 0 0 0
          0 0 0 0 0 0
          0 0 0 0 0 0
          0 0 0 0 0 0
          0 0 0 0 0 0
          0 0 0 0
        </DataArray>
        <DataArray type="Int32" Name="processor_id" format="ascii" RangeMin="0" RangeMax="0">
          0 0 0 0 0 0
          0 0 0 0 0 0
          0 0 0 0 0 0
          0 0 0 0 0 0
          0 0 0 0 0 0
          0 0 0 0 0 0
          0 0 0 0 0 0
          0 0 0 0 0 0
          0 0 0 0 0 0
          0 0 0 0 0 0
          0 0 0 0 0 0
          0 0 0 0 0 0
          0 0 0 0 0 0
          0 0 0 0 0 0
          0 0 0 0 0 0
          0 0 0 0 0 0
          0 0 0 0
        </DataArray>
      </CellData>
      <Points>
        <DataArray type="Float64" Name="Points" NumberOfComponents="3" format="ascii" RangeMin="0" RangeMax="1.4142135624">
          0 0 0 0.1 0 0
          0.1 0.1 0 0 0.1 0
          0.05 0 0 0.1 0.05 0
          0.05 0.1 0 0 0.05 0
          0.05 0.05 0 0.2 0 0
          0.2 0.1 0 0.15 0 0
          0.2 0.05 0 0.15 0.1 0
          0.15 0.05 0 0.3 0 0
          0.3 0.1 0 0.25 0 0
          0.3 0.05 0 0.25 0.1 0
          0.25 0.05 0 0.4 0 0
          0.4 0.1 0 0.35 0 0
          0.4 0.05 0 0.35 0.1 0
          0.35 0.05 0 0.5 0 0
          0.5 0.1 0 0.45 0 0
          0.5 0.05 0 0.45 0.1 0
          0.45 0.05 0 0.6 0 0
          0.6 0.1 0 0.55 0 0
          0.6 0.05 0 0.55 0.1 0
          0.55 0.05 0 0.7 0 0
          0.7 0.1 0 0.65 0 0
          0.7 0.05 0 0.65 0.1 0
          0.65 0.05 0 0.8 0 0
          0.8 0.1 0 0.75 0 0
          0.8 0.05 0 0.75 0.1 0
          0.75 0.05 0 0.9 0 0
          0.9 0.1 0 0.85 0 0
          0.9 0.05 0 0.85 0.1 0
          0.85 0.05 0 1 0 0
          1 0.1 0 0.95 0 0
          1 0.05 0 0.95 0.1 0
          0.95 0.05 0 0.1 0.2 0
          0 0.2 0 0.1 0.15 0
          0.05 0.2 0 0 0.15 0
          0.05 0.15 0 0.2 0.2 0
          0.2 0.15 0 0.15 0.2 0
          0.15 0.15 0 0.3 0.2 0
          0.3 0.15 0 0.25 0.2 0
          0.25 0.15 0 0.4 0.2 0
          0.4 0.15 0 0.35 0.2 0
          0.35 0.15 0 0.5 0.2 0
          0.5 0.15 0 0.45 0.2 0
          0.45 0.15 0 0.6 0.2 0
          0.6 0.15 0 0.55 0.2 0
          0.55 0.15 0 0.7 0.2 0
          0.7 0.15 0 0.65 0.2 0
          0.65 0.15 0 0.8 0.2 0
          0.8 0.15 0 0.75 0.2 0
          0.75 0.15 0 0.9 0.2 0
          0.9 0.15 0 0.85 0.2 0
          0.85 0.15 0 1 0.2 0
          1 0.15 0 0.95 0.2 0
          0.95 0.15 0 0.1 0.3 0
          0 0.3 0 0.1 0.25 0
          0.05 0.3 0 0 0.25 0
          0.05 0.25 0 0.2 0.3 0
          0.2 0.25 0 0.15 0.3 0
          0.15 0.25 0 0.3 0.3 0
          0.3 0.25 0 0.25 0.3 0
          0.25 0.25 0 0.4 0.3 0
          0.4 0.25 0 0.35 0.3 0
          0.35 0.25 0 0.5 0.3 0
          0.5 0.25 0 0.45 0.3 0
          0.45 0.25 0 0.6 0.3 0
          0.6 0.25 0 0.55 0.3 0
          0.55 0.25 0 0.7 0.3 0
          0.7 0.25 0 0.65 0.3 0
          0.65 0.25 0 0.8 0.3 0
          0.8 0.25 0 0.75 0.3 0
          0.75 0.25 0 0.9 0.3 0
          0.9 0.25 0 0.85 0.3 0
          0.85 0.25 0 1 0.3 0
          1 0.25 0 0.95 0.3 0
          0.95 0.25 0 0.1 0.4 0
          0 0.4 0 0.1 0.35 0
          0.05 0.4 0 0 0.35 0
          0.05 0.35 0 0.2 0.4 0
          0.2 0.35 0 0.15 0.4 0
          0.15 0.35 0 0.3 0.4 0
          0.3 0.35 0 0.25 0.4 0
          0.25 0.35 0 0.4 0.4 0
          0.4 0.35 0 0.35 0.4 0
          0.35 0.35 0 0.5 0.4 0
          0.5 0.35 0 0.45 0.4 0
          0.45 0.35 0 0.6 0.4 0
          0.6 0.35 0 0.55 0.4 0
          0.55 0.35 0 0.7 0.4 0
          0.7 0.35 0 0.65 0.4 0
          0.65 0.35 0 0.8 0.4 0
          0.8 0.35 0 0.75 0.4 0
          0.75 0.35 0 0.9 0.4 0
          0.9 0.35 0 0.85 0.4 0
          0.85 0.35 0 1 0.4 0
          1 0.35 0 0.95 0.4 0
          0.95 0.35 0 0.1 0.5 0
          0 0.5 0 0.1 0.45 0
          0.05 0.5 0 0 0.45 0
          0.05 0.45 0 0.2 0.5 0
          0.2 0.45 0 0.15 0.5 0
          0.15 0.45 0 0.3 0.5 0
          0.3 0.45 0 0.25 0.5 0
          0.25 0.45 0 0.4 0.5 0
          0.4 0.45 0 0.35 0.5 0
          0.35 0.45 0 0.5 0.5 0
          0.5 0.45 0 0.45 0.5 0
          0.45 0.45 0 0.6 0.5 0
          0.6 0.45 0 0.55 0.5 0
          0.55 0.45 0 0.7 0.5 0
          0.7 0.45 0 0.65 0.5 0
          0.65 0.45 0 0.8 0.5 0
          0.8 0.45 0 0.75 0.5 0
          0.75 0.45 0 0.9 0.5 0
          0.9 0.45 0 0.85 0.5 0
          0.85 0.45 0 1 0.5 0
          1 0.45 0 0.95 0.5 0
          0.95 0.45 0 0.1 0.6 0
          0 0.6 0 0.1 0.55 0
          0.05 0.6 0 0 0.55 0
          0.05 0.55 0 0.2 0.6 0
          0.2 0.55 0 0.15 0.6 0
          0.15 0.55 0 0.3 0.6 0
          0.3 0.55 0 0.25 0.6 0
          0.25 0.55 0 0.4 0.6 0
          0.4 0.55 0 0.35 0.6 0
          0.35 0.55 0 0.5 0.6 0
          0.5 0.55 0 0.45 0.6 0
          0.45 0.55 0 0.6 0.6 0
          0.6 0.55 0 0.55 0.6 0
          0.55 0.55 0 0.7 0.6 0
          0.7 0.55 0 0.65 0.6 0
          0.65 0.55 0 0.8 0.6 0
          0.8 0.55 0 0.75 0.6 0
          0.75 0.55 0 0.9 0.6 0
          0.9 0.55 0 0.85 0.6 0
          0.85 0.55 0 1 0.6 0
          1 0.55 0 0.95 0.6 0
          0.95 0.55 0 0.1 0.7 0
          0 0.7 0 0.1 0.65 0
          0.05 0.7 0 0 0.65 0
          0.05 0.65 0 0.2 0.7 0
          0.2 0.65 0 0.15 0.7 0
          0.15 0.65 0 0.3 0.7 0
          0.3 0.65 0 0.25 0.7 0
          0.25 0.65 0 0.4 0.7 0
          0.4 0.65 0 0.35 0.7 0
          0.35 0.65 0 0.5 0.7 0
          0.5 0.65 0 0.45 0.7 0
          0.45 0.65 0 0.6 0.7 0
          0.6 0.65 0 0.55 0.7 0
          0.55 0.65 0 0.7 0.7 0
          0.7 0.65 0 0.65 0.7 0
          0.65 0.65 0 0.8 0.7 0
          0.8 0.65 0 0.75 0.7 0
          0.75 0.65 0 0.9 0.7 0
          0.9 0.65 0 0.85 0.7 0
          0.85 0.65 0 1 0.7 0
          1 0.65 0 0.95 0.7 0
          0.95 0.65 0 0.1 0.8 0
          0 0.8 0 0.1 0.75 0
          0.05 0.8 0 0 0.75 0
          0.05 0.75 0 0.2 0.8 0
          0.2 0.75 0 0.15 0.8 0
          0.15 0.75 0 0.3 0.8 0
          0.3 0.75 0 0.25 0.8 0
          0.25 0.75 0 0.4 0.8 0
          0.4 0.75 0 0.35 0.8 0
          0.35 0.75 0 0.5 0.8 0
          0.5 0.75 0 0.45 0.8 0
          0.45 0.75 0 0.6 0.8 0
          0.6 0.75 0 0.55 0.8 0
          0.55 0.75 0 0.7 0.8 0
          0.7 0.75 0 0.65 0.8 0
          0.65 0.75 0 0.8 0.8 0
          0.8 0.75 0 0.75 0.8 0
          0.75 0.75 0 0.9 0.8 0
          0.9 0.75 0 0.85 0.8 0
          0.85 0.75 0 1 0.8 0
          1 0.75 0 0.95 0.8 0
          0.95 0.75 0 0.1 0.9 0
          0 0.9 0 0.1 0.85 0