<?xml version="1.0"?>
<VTKFile type="UnstructuredGrid" version="0.1" byte_order="LittleEndian" compressor="vtkZLibDataCompressor">
  <UnstructuredGrid>
    <Piece NumberOfPoints="441" NumberOfCells="100">
      <PointData>
        <DataArray type="Float64" Name="u" format="ascii" RangeMin="-0.19522248884" RangeMax="1">
          2.1269618371e-16 -1.5160257986e-16 -0.00508359168 2.8991524434e-17 6.7266405865e-16 -0.0019518448016
          -0.0012445752163 9.4309704396e-16 -0.00019419006105 -2.9436771821e-15 -0.019196618281 -5.089897221e-15
          -0.0094611970667 -0.011184182503 -0.0049494418011 -7.0358636467e-15 -0.036861668988 -2.0011094782e-14
          -0.0195620275 -0.028059982842 -0.014505531755 -1.0297131246e-14 -0.050842693206 -3.5159611154e-14
          -0.027650109572 -0.044734746262 -0.024140268018 -1.1523195079e-14 -0.056082619679 -4.4388058737e-14
          -0.030693304923 -0.054799554965 -0.029994270386 -1.0292628981e-14 -0.050831550192 -4.4375834333e-14
          -0.027642954079 -0.054791333598 -0.02998866187 -7.0357431003e-15 -0.036863043825 -3.514544469e-14
          -0.019563720606 -0.044725948651 -0.024134600343 -2.9506437488e-15 -0.019218611388 -2.0027014633e-14
          -0.009476247944 -0.028073079055 -0.014515281643 -1.5646008755e-16 -0.0051008052344 -5.1193676326e-15
          -0.0019627967332 -0.011208864102 -0.0049660888001 2.1288395462e-16 2.7206843883e-17 6.6717880325e-16
          9.3945861069e-16 -0.0012513721885 -0.00019797318157 -0.011271070391 -1.522023759e-16 -0.0082598551315
          -0.0030356080159 -3.7564673935e-16 -0.0021968444246 -0.037701098605 -0.028620905611 -0.023294651679
          -0.017346200181 -0.067666274865 -0.05269767249 -0.052984395834 -0.040801413957 -0.090438890983
          -0.071390833822 -0.080543748682 -0.063241855817 -0.098826331781 -0.078345370497 -0.09674895622
          -0.076630054773 -0.090387285094 -0.071367905051 -0.096717728034 -0.076614895048 -0.067618203242
          -0.052686348476 -0.080484066667 -0.06321870537 -0.03769857723 -0.028639689408 -0.05295720777
          -0.040805667882 -0.011287337275 -0.0082796563983 -0.023310398406 -0.017372484729 -1.5529976099e-16
          -3.8547827738e-16 -0.0030439551251 -0.0022052427931 -0.01720130058 -2.5440241058e-16 -0.014211417408
          -0.0046995789561 -7.8549069119e-16 -0.0038492036221 -0.055585755354 -0.046620877634 -0.034990560207
          -0.029118262536 -0.096705571591 -0.082252106763 -0.076844004202 -0.064917914326 -0.12662514987
          -0.10876454992 -0.11375487733 -0.097298346294 -0.13735212319 -0.11840925322 -0.1347153615
          -0.11602633627 -0.12643097161 -0.10865802324 -0.13460605318 -0.11596478739 -0.096458896998
          -0.082129419095 -0.11350851914 -0.097167340222 -0.055441229378 -0.046567668785 -0.076633236887
          -0.064823120681 -0.017174539354 -0.014214189825 -0.034916165932 -0.029103387357 -2.5924433182e-16
          -8.0260182734e-16 -0.004698945112 -0.0038557955671 -0.023725901121 -4.5711744899e-16 -0.020356524549
          -0.0066365007755 -1.4632264782e-15 -0.0056519637914 -0.074258855517 -0.064783263713 -0.047498226273
          -0.041067084052 -0.1251891036 -0.11112569526 -0.10104066132 -0.088933123289 -0.16015992637
          -0.14397822415 -0.14534144783 -0.12993684711 -0.17219304136 -0.15555062269 -0.16929527219
          -0.15273070992 -0.15967882571 -0.14365811009 -0.16903219086 -0.1525534904 -0.12451255767
          -0.1106943848 -0.14470845969 -0.12952219029 -0.073765941791 -0.064494583203 -0.10040990882
          -0.088544792402 -0.023570503651 -0.020278410528 -0.047181769539 -0.040894998708 -4.5863372026e-16
          -1.4762438166e-15 -0.0065988282714 -0.0056365491302 -0.031451836245 -5.4483109355e-16 -0.027373784098
          -0.0087893909529 -1.7973082862e-15 -0.0075370245321 -0.093450765543 -0.083972746042 -0.061610294634
          -0.054442321302 -0.14931467949 -0.13832334101 -0.12365624891 -0.11286068563 -0.18373174731
          -0.17408199077 -0.16960330972 -0.15912711048 -0.1946570973 -0.18598272015 -0.19212489121
          -0.18316089806 -0.18288349955 -0.17341518447 -0.19167103627 -0.18280002926 -0.14802373946
          -0.13734877188 -0.1684512171 -0.15823643973 -0.092382691117 -0.083212849454 -0.12238149187
          -0.11192475161 -0.031052367694 -0.027111959543 -0.060857764643 -0.053928055285 -5.4258204427e-16
          -1.8022458151e-15 -0.0086832661603 -0.0074731129662 -0.041009010683 -1.6435552408e-15 -0.036106651962
          -0.012715188808 -4.8676170481e-15 -0.010878343816 -0.1092075317 -0.10214495321 -0.075906625974
          -0.06867499666 -0.15676146575 -0.15647672566 -0.13700031658 -0.13246677127 -0.17818195679
          -0.18642235773 -0.17019548431 -0.17447385628 -0.18338079081 -0.19522248884 -0.18233736019
          -0.19326025583 -0.17718808185 -0.18544318253 -0.18182370059 -0.1927443244 -0.15505872936
          -0.15490956346 -0.16877292294 -0.17311419832 -0.10755548939 -0.10075923416 -0.13518024126
          -0.13086638474 -0.040279147958 -0.035541761696 -0.074638045432 -0.067661050925 -1.6078802431e-15
          -4.7853837191e-15 -0.012485404905 -0.010707616087 -0.051847919913 -1.2543867916e-15 -0.046053567898
          -0.015724274615 -4.0613016057e-15 -0.013010657263 -0.10949995448 -0.11322435203 -0.088286897568
          -0.083760407566 -0.11882633311 -0.14619557717 -0.11895661733 -0.13409819366 -0.1073110696
          -0.154033702 -0.11382498321 -0.15223729677 -0.10059405709 -0.15392591749 -0.1023529925
          -0.15415001859 -0.10693356867 -0.15322433902 -0.1021849297 -0.1537444175 -0.11779796673
          -0.1446325543 -0.11314549656 -0.15101544248 -0.10796561106 -0.11146330594 -0.11756765915
          -0.13229658617 -0.050922890484 -0.045188450672 -0.086855987952 -0.082301176178 -1.2097291788e-15
          -3.9180777216e-15 -0.015420993231 -0.012750069499 -0.060430242499 -1.1852739539e-14 -0.058544323331
          -0.032309229137 -2.9840319388e-14 -0.025574523266 -0.051352836678 -0.09193412511 -0.070436983351
          -0.084307807797 0.024337503057 -0.066519482287 -0.01613796505 -0.08503390159 0.084100233502
          -0.030446635684 0.059045090839 -0.04646493104 0.10481563391 -0.016568701494 0.099908091916
          -0.019958782205 0.083006267173 -0.030755574425 0.099309400661 -0.020159100989 0.022904739738
          -0.06654042753 0.057653672025 -0.046714413447 -0.051810060882 -0.091139227076 -0.017220928079
          -0.084632614705 -0.060004250539 -0.057710740917 -0.070196993772 -0.083266719989 -1.1722548068e-14
          -2.9407654966e-14 -0.032014552572 -0.025213716731 0.014297957037 -4.8914295813e-14 -0.046644759682
          -0.019276084685 -3.8054945551e-14 -0.022109331357 0.21490107032 0.031934442608 0.093311121329
          -0.039478415849 0.37737694223 0.16899261146 0.31681041962 0.11193295466 0.45153724801
          0.24324290334 0.42034510241 0.21175718742 0.47578481065 0.26886915591 0.47063461654
          0.26312279629 0.44979099197 0.24153584779 0.46978449625 0.26225815183 0.37418165137
          0.16623037572 0.41777420061 0.20937437759 0.21105006774 0.029607651527 0.31310653842
          0.10915100771 0.012739895458 -0.047045780832 0.090224015387 -0.040808767701 -4.8475345096e-14
          -3.6953476543e-14 -0.018736179378 -0.0219165477 1 0.5 0.24982153032
          1 -8.3834141298e-14 0.017852952297 1 0.5443196106 1
          0.45952537035 1 0.65467463546 1 0.6072382474 1
          0.70817989848 1 0.68958331285 1 0.72209485596 1
          0.71899177623 1 0.70719724357 1 0.71847247207 1
          0.65255197871 1 0.68806997834 1 0.54138921562 1
          0.60454084767 1 0.24696973167 1 0.45623371599 0.5
          -8.4061554995e-14 1 0.016095871393
        </DataArray>
        <DataArray type="Float64" Name="v" format="ascii" RangeMin="-0.35990302472" RangeMax="0.36291581692">
          -2.1287566506e-16 -3.5393958133e-18 0.005005666649 9.1690153259e-17 -9.1411272666e-16 0.0012269101648
          0.0019349780034 -6.8136542328e-16 0.00019840654984 1.8383955128e-16 0.0092946304361 5.3142204541e-16
          0.0025098468386 0.0076471101861 0.0020482944923 2.0686565256e-16 0.0092969909953 8.4118584764e-16
          0.0025618150362 0.0098404287627 0.0027049492485 1.2238729457e-16 0.0056238492966 7.0216826785e-16
          0.0015530871718 0.0078306661963 0.0021731764924 -4.7457828727e-19 -6.0294068428e-06 2.5581383158e-16
          -1.4915300867e-06 0.0029338538938 0.00081346480215 -1.2258615919e-16 -0.0056253716146 -2.5855228959e-16
          -0.001552800981 -0.0029429242723 -0.00081559529139 -2.0596913986e-16 -0.009283602303 -7.0050822935e-16
          -0.0025570549887 -0.0078233305496 -0.0021701533578 -1.8332164945e-16 -0.0092882985438 -8.376041399e-16
          -0.002507572506 -0.0098272165266 -0.0027002477758 2.5729007517e-18 -0.0050192707887 -5.3284627842e-16
          -0.0012309631628 -0.0076520039667 -0.0020497222446 2.1328826283e-16 -9.7612914519e-17 9.1185148652e-16
          6.7626307448e-16 -0.0019480676285 -0.0002016553323 0.020427772205 2.9746168103e-15 0.011323651077
          0.010233203289 5.0428872088e-15 0.0050995375829 0.033179239935 0.019629891783 0.028419361645
          0.016444233656 0.032023658781 0.019312301258 0.034320511904 0.020552809316 0.019136986932
          0.011626423817 0.026743599635 0.016204058704 -2.4171820827e-05 -1.1044957221e-05 0.0099521462317
          0.0060580546682 -0.019149753446 -0.011627779195 -0.0099905451481 -0.0060742851803 -0.031980866308
          -0.019283543358 -0.026725084344 -0.016187821008 -0.033147244063 -0.019613465155 -0.034272341913
          -0.020523709278 -0.020459805507 -0.011347291154 -0.028420255746 -0.016449462073 -2.9973294074e-15
          -5.0943075731e-15 -0.010272223286 -0.0051240026751 0.046307670091 8.5963008794e-15 0.032027966318
          0.025109992445 2.2516723969e-14 0.016823023875 0.06958731156 0.049789814212 0.06145687076
          0.043357913691 0.06479034359 0.047213134283 0.070479360822 0.050956897491 0.038032139235
          0.027984151899 0.053534954808 0.039233067696 -9.1478511051e-05 -4.5952985399e-05 0.019675595297
          0.014520359968 -0.038122191188 -0.028018233484 -0.019833282461 -0.014596365998 -0.064709795485
          -0.047149597227 -0.05353619877 -0.039214315721 -0.069467037202 -0.049724609397 -0.070353648831
          -0.050875718585 -0.046315679524 -0.032057183689 -0.061392205422 -0.043337885516 -8.6356609916e-15
          -2.264035468e-14 -0.025159467448 -0.016871442687 0.083007434144 1.6679618453e-14 0.063128433907
          0.046571098563 4.9958271982e-14 0.034881605785 0.11819304773 0.092360594739 0.10698985511
          0.082549484327 0.10613942282 0.084503268787 0.11734620157 0.09263971432 0.060894361278
          0.049087960524 0.08657567724 0.06940626786 -0.0002768482873 -0.00016203804018 0.031261277276
          0.025308198774 -0.061233711084 -0.049268591121 -0.031757745086 -0.025593714431 -0.1060324034
          -0.084402220236 -0.086695712807 -0.069444768305 -0.11784160341 -0.092146964235 -0.11706754687
          -0.092446104566 -0.082838903107 -0.063078108589 -0.10668729601 -0.082396481694 -1.6709378051e-14
          -5.0103319868e-14 -0.046545530875 -0.034911191607 0.13112947755 2.8125958392e-14 0.10557883929
          0.075752453621 8.7980039203e-14 0.059910530308 0.17753358478 0.1466182387 0.16469874809
          0.13432947416 0.15234256364 0.12904077636 0.17211733108 0.1440178683 0.084715547831
          0.072992452435 0.12209737999 0.1044247044 -0.0006424522427 -0.00043433239584 0.043028556811
          0.037289106883 -0.085596165311 -0.07355794301 -0.04420749183 -0.038077447424 -0.15228302977
          -0.12894048028 -0.12253706649 -0.10467070771 -0.17674080708 -0.14607442144 -0.17161159846
          -0.14363121337 -0.13049296328 -0.10522191119 -0.163867458 -0.13380551117 -2.8063797451e-14
          -8.7958696801e-14 -0.075454641364 -0.059786107582 0.19326768511 4.3539139039e-14 0.15971406261
          0.11513575193 1.4298104772e-13 0.093707192651 0.24117661244 0.20960686543 0.23320757611
          0.19755189937 0.19352591022 0.17453302757 0.22553801454 0.20001025123 0.10272645818
          0.095098706721 0.15115168136 0.13828897193 -0.0011484998309 -0.00089251892984 0.051377027102
          0.047966281665 -0.1044408319 -0.096378718397 -0.053524037313 -0.04962009842 -0.1937231246
          -0.17457037097 -0.15218838389 -0.13899935029 -0.23978946814 -0.20852612677 -0.22486797139
          -0.19940272191 -0.19167997231 -0.15868323043 -0.23146817674 -0.19631975557 -4.322831348e-14
          -1.422979101e-13 -0.11421074955 -0.093160319862 0.26229736264 6.7104932954e-14 0.22845652432
          0.16669660812 2.1378488031e-13 0.13836765014 0.29128030851 0.26946922679 0.29855924231
          0.26803789448 0.20886644042 0.20647110288 0.25690307778 0.24585303808 0.10358596217
          0.10616807857 0.156707514 0.15838482198 -0.001520212784 -0.001393781612 0.050828227505
          0.052595861197 -0.10607852706 -0.10834653191 -0.05373347089 -0.055228191156 -0.20964529187
          -0.20694486314 -0.15848742115 -0.15982573277 -0.2895918755 -0.26786486338 -0.25645591681
          -0.24524135408 -0.25956790194 -0.22628116369 -0.295987239 -0.26582940186 -6.6349231162e-14
          -2.1176903012e-13 -0.16483316722 -0.13701111748 0.34389723897 1.0534688071e-13 0.2978680475
          0.2463116443 3.4231406135e-13 0.19899458324 0.27934326283 0.29980611332 0.33612568702
          0.32252881326 0.16892736724 0.19744972419 0.2214676935 0.25227911592 0.076138725233
          0.093974094149 0.12043353941 0.14454861782 -0.0013121138989 -0.0015229211235 0.036248977616
          0.04555593622 -0.078521347969 -0.096614790233 -0.038813285725 -0.048506722189 -0.17035690847
          -0.19862463949 -0.12247327662 -0.146607803 -0.27837371427 -0.2983602114 -0.22190899643
          -0.25225440561 -0.34012819389 -0.2945644786 -0.33346231028 -0.31977633997 -1.0393240315e-13
          -3.3815190807e-13 -0.24329355566 -0.19658071482 0.25974314153 2.4918142148e-13 0.36291581692
          0.32408627165 5.2475310492e-13 0.28104507926 0.14185510128 0.22500552492 0.18260680359
          0.30777804869 0.068183301811 0.12536784415 0.10301741966 0.16855450681 0.028416667852
          0.052743242632 0.04477386416 0.086342204604 -0.00050722575679 -0.00092989604363 0.01374260639
          0.024729221155 -0.029435418697 -0.05450342846 -0.014763984149 -0.02655609803 -0.069216340446
          -0.12677598843 -0.045805382111 -0.08801828012 -0.14219332127 -0.22479484314 -0.10383143116
          -0.16932823265 -0.25837201358 -0.35990302472 -0.18252202799 -0.30623113248 -2.4714083773e-13
          -5.1797891946e-13 -0.32111499186 -0.27784526972 2.5951849252e-14 1.2988750446e-13 0.094362397138
          6.4609825709e-13 1.1754562325e-12 0.31178676827 1.4972912759e-14 0.058281405555 -9.3478457155e-15
          0.042494100959 -8.6411748868e-16 0.017702150416 4.0261165439e-14 0.041280817871 1.3691586274e-15
          0.0091123812288 -3.0476174315e-15 0.010333522976 2.7411166601e-17 -0.00011796032508 4.2891782216e-15
          0.0050843294509 -1.3339222993e-15 -0.0093724869485 -4.1503167261e-15 -0.0053491862103 8.8118576122e-16
          -0.018047646431 3.3195437922e-15 -0.010565342904 -1.4762471635e-14 -0.058290504704 -4.0251694744e-14
          -0.041654857986 -2.6742931694e-14 -0.094802701569 9.4282332715e-15 -0.04262063262 -1.2835365209e-13
          -1.1659767956e-12 -6.427511148e-13 -0.3100595552
        </DataArray>
        <DataArray type="Float64" Name="p" format="ascii" RangeMin="-83.703018664" RangeMax="82.977964911">
          -0.31904174836 -0.40985153416 -0.32103243926 -0.22680488773 -0.36444664126 -0.36544198671
          -0.2739186635 -0.27292331805 -0.31918265238 -0.54933679828 -0.38737223784 -0.47959416622
          -0.46835451806 -0.35420233855 -0.41689825238 -0.50905358672 -0.35031956378 -0.5291951925
          -0.42968657525 -0.36884590081 -0.44902054665 -0.2959188111 -0.19887624131 -0.40248619891
          -0.2473975262 -0.27459790254 -0.33854205073 0.021829572929 0.021819362914 -0.13704461908
          0.021824467922 -0.088528439196 -0.11278652914 0.33916847631 0.24219710448 0.18049902462
          0.29068279039 0.1320082337 0.15625362916 0.55172322217 0.39317261259 0.44544584924
          0.47244791738 0.31768485854 0.38156535389 0.59225492727 0.43034738818 0.57198907472
          0.51130115773 0.41176000039 0.49187453755 0.45339695497 0.36450775289 0.52282594112
          0.40895235393 0.39742757053 0.46012675583 0.36253968841 0.27016701872 0.40796832169
          0.31635335356 0.3173373858 0.36265285375 -0.26289758655 -0.056061636685 -0.2919650129
          -0.15947961162 -0.14143326221 -0.21669913756 -0.35210700405 -0.36973962094 -0.3075022953
          -0.33085231692 -0.31739073095 -0.33385514736 -0.3347488675 -0.35179738415 -0.17730962247
          -0.18809293189 -0.24735017671 -0.26097403963 0.022773389066 0.02229637599 -0.0772681167
          -0.082898277948 0.22217894115 0.23218802282 0.12247616511 0.1272421994 0.36107437688
          0.37712349474 0.29162665902 0.30465575878 0.39559891291 0.41297315055 0.3783366449
          0.39504832264 0.30731615287 0.33591195288 0.35145753289 0.37444255171 0.10047659534
          0.18532180703 0.2038963741 0.26061687995 -0.32049270375 -0.0039793782304 -0.29169514515
          -0.16223604099 -0.030020507458 -0.1608578263 -0.44079642973 -0.39645171689 -0.38064456674
          -0.34407343102 -0.39208726451 -0.35473899773 -0.41644184712 -0.37559535731 -0.21564775132
          -0.19647868689 -0.30386750792 -0.27560884231 0.026106070901 0.024439729984 -0.094770840209
          -0.086019478455 0.26630211115 0.24424052615 0.14620409102 0.13434012807 0.4396362091
          0.40035529299 0.35296916012 0.32229790957 0.4867758524 0.44118738265 0.46320603075
          0.42077133782 0.36766810374 0.3374921283 0.42722197807 0.38933975548 0.052347222788
          0.076411909063 0.21000766326 0.20695201868 -0.56347463204 -0.15111287417 -0.44198366789
          -0.3572937531 -0.0775461262 -0.25976489705 -0.705899976 -0.57334820286 -0.63468730402
          -0.50766593538 -0.5917622811 -0.4919247728 -0.64883112855 -0.53263648783 -0.31756265454
          -0.26660520293 -0.45466246782 -0.37926498787 0.034134787665 0.030120429283 -0.14171393344
          -0.11824238682 0.38246566084 0.324383886 0.20830022425 0.17725215764 0.64918833979
          0.54441227444 0.51582700032 0.43439808022 0.75783560728 0.62230572984 0.70351197353
          0.58335900214 0.61632816561 0.49199813467 0.68708188644 0.55715193225 0.20702977329
          0.12968849804 0.41167896945 0.31084331635 -1.1403550549 -0.54528485669 -0.85191484345
          -0.84281995578 -0.34819886543 -0.60005685444 -1.2057773801 -0.95583867807 -1.1730662175
          -0.90387676076 -0.95190186374 -0.77183207242 -1.0788396219 -0.86383537524 -0.48898199006
          -0.4032723223 -0.7204419269 -0.58755219736 0.049768388129 0.041951587897 -0.21960680096
          -0.1806603672 0.58179181419 0.48212873752 0.31578010116 0.26204016271 1.028870901
          0.83902962041 0.80533135761 0.66057917896 1.2682789522 1.0130572797 1.1485749266
          0.92604345007 1.1994968062 0.90791248592 1.2338878792 0.96048488282 0.61286146495
          0.40994561912 0.9061791356 0.65892905252 -2.0986515741 -1.5540353882 -1.6195033145
          -1.8263434812 -1.0496601225 -1.3345817185 -2.0878533667 -1.6468153734 -2.0932524704
          -1.633159344 -1.4869363895 -1.2194191266 -1.7873948781 -1.43311725 -0.73267273981
          -0.61082736493 -1.1098045647 -0.91512324579 0.074116382816 0.061942385473 -0.3292781785
          -0.27444248973 0.86966388223 0.72572784821 0.47189013252 0.39383511684 1.5947121208
          1.3117915109 1.2321880015 1.0187596796 2.1642511558 1.716265054 1.8794816383
          1.5140282824 2.1638692968 1.6816830515 2.1640602263 1.6989740528 1.6280048586
          1.1204331618 1.8959370777 1.4010581067 -4.2351644147 -3.0495526949 -3.1669079944
          -3.6423585548 -2.3017940416 -2.734351018 -3.310802042 -2.6993277044 -3.7729832284
          -2.9331178494 -2.2141046369 -1.8505205132 -2.7624533394 -2.2749241088 -1.0001073824
          -0.86639006113 -1.6071060097 -1.3584552872 0.10156741161 0.087841897214 -0.44926998541
          -0.38927408196 1.1871684984 1.0284161903 0.64436795499 0.55812904376 2.3585200455
          1.9766160831 1.7728442719 1.5025161367 3.3995132411 2.7818821984 2.8790166433
          2.3792491408 4.2847192986 3.2242942977 3.8421162698 3.0030882481 3.1161457696
          2.3720753141 3.7004325341 2.7981848059 -6.7859526354 -7.6038387385 -5.5105585251
          -7.1948956869 -5.3266957167 -5.4186271209 -5.3231694857 -4.3169857638 -6.0545610605
          -4.9137721445 -2.7832580206 -2.4986813287 -4.0532137531 -3.4078335463 -1.2272658079
          -1.1136865952 -2.0052619142 -1.8061839619 0.1154789194 0.10852316551 -0.55589344424
          -0.50258171483 1.4421841615 1.3146763299 0.77883154046 0.71159974772 2.9447603404
          2.6516401929 2.1934722509 1.9831582614 5.408649983 4.404081612 4.1767051617
          3.5278609025 6.8075318878 5.5461255932 6.1080909354 4.9751036026 7.6112679688
          5.3637068692 7.2093999283 5.4549162312 -16.23171988 -15.633878468 -11.508836258
          -15.932799174 -11.618858603 -11.563847431 -5.2275368407 -5.2753531632 -10.72962836
          -8.3920947105 -3.1647183551 -2.9739881878 -4.1961275979 -4.1246706755 -1.0463457136
          -1.1368057608 -2.1055320344 -2.0553969743 0.1058159498 0.1106474346 -0.47026488192
          -0.51307916308 1.2335441508 1.3378641561 0.66968005028 0.72425579537 3.3059856268
          3.1253729836 2.2697648888 2.2316185699 5.263520549 5.336085266 4.2847530879
          4.2307291248 16.138152353 11.472842121 10.700836451 8.4044636933 15.481231899
          11.546249934 15.809692126 11.509546027 -3.8944262912 -83.703018664 -10.063073086
          -43.798722477 -49.668448566 -29.865760826 -5.9760318806 -5.6017843607 -4.9352290859
          -7.8324287231 -1.0858662843 -2.1252923197 -3.5309490824 -3.8635383402 -0.80322333253
          -0.92478452308 -0.94454480839 -1.5250384214 0.085455537688 0.095635743744 -0.35888389742
          -0.41457438967 0.96650498347 1.1000245671 0.52598026058 0.59783015543 1.1702109734
          2.2380983001 1.0683579785 1.6690614336 5.9786491296 5.6210848393 3.5744300515
          3.9295915697 3.7653066962 9.9517295248 4.8719779129 7.786407182 82.977964911
          49.229598405 43.371635804 29.590663965
        </DataArray>
      </PointData>
      <CellData>
        <DataArray type="Int32" Name="libmesh_elem_id" format="ascii" RangeMin="0" RangeMax="99">
          0 1 2 3 4 5
          6 7 8 9 10 11
          12 13 14 15 16 17
          18 19 20 21 22 23
          24 25 26 27 28 29
          30 31 32 33 34 35
          36 37 38 39 40 41
          42 43 44 45 46 47
          48 49 50 51 52 53
          54 55 56 57 58 59
          60 61 62 63 64 65
          66 67 68 69 70 71
          72 73 74 75 76 77
          78 79 80 81 82 83
          84 85 86 87 88 89
          90 91 92 93 94 95
          96 97 98 99
        </DataArray>
        <DataArray type="Int32" Name="subdomain_id" format="ascii" RangeMin="0" RangeMax="0">
          0 0 0 0 0 0
          0 0 0 0 0 0
          0 0 0 0 0 0
          0 0 0 0 0 0
          0 0 0 0 0 0
          0 0 0 0 0 0
          0 0 0 0 0 0
          0 0 0 0 0 0
          0 0 0 0 0 0
          0 0 0 0 0 0
          0 0 0 0 0 0
          0 0 0 0 0 0
          0 0 0 0 0 0
          0 0 0 0 0 0
          0 0 0 0 0 0
          0 0 0 0 0 0
          0 0 0 0
        </DataArray>
        <DataArray type="Int32" Name="processor_id" format="ascii" RangeMin="0" RangeMax="0">
          0 0 0 0 0 0
          0 0 0 0 0 0
          0 0 0 0 0 0
          0 0 0 0 0 0
          0 0 0 0 0 0
          0 0 0 0 0 0
          0 0 0 0 0 0
          0 0 0 0 0 0
          0 0 0 0 0 0
          0 0 0 0 0 0
          0 0 0 0 0 0
          0 0 0 0 0 0
          0 0 0 0 0 0
          0 0 0 0 0 0
          0 0 0 0 0 0
          0 0 0 0 0 0
          0 0 0 0
        </DataArray>
      </CellData>
      <Points>
        <DataArray type="Float64" Name="Points" NumberOfComponents="3" format="ascii" RangeMin="0" RangeMax="1.4142135624">
          0 0 0 0.1 0 0
          0.1 0.1 0 0 0.1 0
          0.05 0 0 0.1 0.05 0
          0.05 0.1 0 0 0.05 0
          0.05 0.05 0 0.2 0 0
          0.2 0.1 0 0.15 0 0
          0.2 0.05 0 0.15 0.1 0
          0.15 0.05 0 0.3 0 0
          0.3 0.1 0 0.25 0 0
          0.3 0.05 0 0.25 0.1 0
          0.25 0.05 0 0.4 0 0
          0.4 0.1 0 0.35 0 0
          0.4 0.05 0 0.35 0.1 0
          0.35 0.05 0 0.5 0 0
          0.5 0.1 0 0.45 0 0
          0.5 0.05 0 0.45 0.1 0
          0.45 0.05 0 0.6 0 0
          0.6 0.1 0 0.55 0 0
          0.6 0.05 0 0.55 0.1 0
          0.55 0.05 0 0.7 0 0
          0.7 0.1 0 0.65 0 0
          0.7 0.05 0 0.65 0.1 0
          0.65 0.05 0 0.8 0 0
          0.8 0.1 0 0.75 0 0
          0.8 0.05 0 0.75 0.1 0
          0.75 0.05 0 0.9 0 0
          0.9 0.1 0 0.85 0 0
          0.9 0.05 0 0.85 0.1 0
          0.85 0.05 0 1 0 0
          1 0.1 0 0.95 0 0
          1 0.05 0 0.95 0.1 0
          0.95 0.05 0 0.1 0.2 0
          0 0.2 0 0.1 0.15 0
          0.05 0.2 0 0 0.15 0
          0.05 0.15 0 0.2 0.2 0
          0.2 0.15 0 0.15 0.2 0
          0.15 0.15 0 0.3 0.2 0
          0.3 0.15 0 0.25 0.2 0
          0.25 0.15 0 0.4 0.2 0
          0.4 0.15 0 0.35 0.2 0
          0.35 0.15 0 0.5 0.2 0
          0.5 0.15 0 0.45 0.2 0
          0.45 0.15 0 0.6 0.2 0
          0.6 0.15 0 0.55 0.2 0
          0.55 0.15 0 0.7 0.2 0
          0.7 0.15 0 0.65 0.2 0
          0.65 0.15 0 0.8 0.2 0
          0.8 0.15 0 0.75 0.2 0
          0.75 0.15 0 0.9 0.2 0
          0.9 0.15 0 0.85 0.2 0
          0.85 0.15 0 1 0.2 0
          1 0.15 0 0.95 0.2 0
          0.95 0.15 0 0.1 0.3 0
          0 0.3 0 0.1 0.25 0
          0.05 0.3 0 0 0.25 0
          0.05 0.25 0 0.2 0.3 0
          0.2 0.25 0 0.15 0.3 0
          0.15 0.25 0 0.3 0.3 0
          0.3 0.25 0 0.25 0.3 0
          0.25 0.25 0 0.4 0.3 0
          0.4 0.25 0 0.35 0.3 0
          0.35 0.25 0 0.5 0.3 0
          0.5 0.25 0 0.45 0.3 0
          0.45 0.25 0 0.6 0.3 0
          0.6 0.25 0 0.55 0.3 0
          0.55 0.25 0 0.7 0.3 0
          0.7 0.25 0 0.65 0.3 0
          0.65 0.25 0 0.8 0.3 0
          0.8 0.25 0 0.75 0.3 0
          0.75 0.25 0 0.9 0.3 0
          0.9 0.25 0 0.85 0.3 0
          0.85 0.25 0 1 0.3 0
          1 0.25 0 0.95 0.3 0
          0.95 0.25 0 0.1 0.4 0
          0 0.4 0 0.1 0.35 0
          0.05 0.4 0 0 0.35 0
          0.05 0.35 0 0.2 0.4 0
          0.2 0.35 0 0.15 0.4 0
          0.15 0.35 0 0.3 0.4 0
          0.3 0.35 0 0.25 0.4 0
          0.25 0.35 0 0.4 0.4 0
          0.4 0.35 0 0.35 0.4 0
          0.35 0.35 0 0.5 0.4 0
          0.5 0.35 0 0.45 0.4 0
          0.45 0.35 0 0.6 0.4 0
          0.6 0.35 0 0.55 0.4 0
          0.55 0.35 0 0.7 0.4 0
          0.7 0.35 0 0.65 0.4 0
          0.65 0.35 0 0.8 0.4 0
          0.8 0.35 0 0.75 0.4 0
          0.75 0.35 0 0.9 0.4 0
          0.9 0.35 0 0.85 0.4 0
          0.85 0.35 0 1 0.4 0
          1 0.35 0 0.95 0.4 0
          0.95 0.35 0 0.1 0.5 0
          0 0.5 0 0.1 0.45 0
          0.05 0.5 0 0 0.45 0
          0.05 0.45 0 0.2 0.5 0
          0.2 0.45 0 0.15 0.5 0
          0.15 0.45 0 0.3 0.5 0
          0.3 0.45 0 0.25 0.5 0
          0.25 0.45 0 0.4 0.5 0
          0.4 0.45 0 0.35 0.5 0
          0.35 0.45 0 0.5 0.5 0
          0.5 0.45 0 0.45 0.5 0
          0.45 0.45 0 0.6 0.5 0
          0.6 0.45 0 0.55 0.5 0
          0.55 0.45 0 0.7 0.5 0
          0.7 0.45 0 0.65 0.5 0
          0.65 0.45 0 0.8 0.5 0
          0.8 0.45 0 0.75 0.5 0
          0.75 0.45 0 0.9 0.5 0
          0.9 0.45 0 0.85 0.5 0
          0.85 0.45 0 1 0.5 0
          1 0.45 0 0.95 0.5 0
          0.95 0.45 0 0.1 0.6 0
          0 0.6 0 0.1 0.55 0
          0.05 0.6 0 0 0.55 0
          0.05 0.55 0 0.2 0.6 0
          0.2 0.55 0 0.15 0.6 0
          0.15 0.55 0 0.3 0.6 0
          0.3 0.55 0 0.25 0.6 0
          0.25 0.55 0 0.4 0.6 0
          0.4 0.55 0 0.35 0.6 0
          0.35 0.55 0 0.5 0.6 0
          0.5 0.55 0 0.45 0.6 0
          0.45 0.55 0 0.6 0.6 0
          0.6 0.55 0 0.55 0.6 0
          0.55 0.55 0 0.7 0.6 0
          0.7 0.55 0 0.65 0.6 0
          0.65 0.55 0 0.8 0.6 0
          0.8 0.55 0 0.75 0.6 0
          0.75 0.55 0 0.9 0.6 0
          0.9 0.55 0 0.85 0.6 0
          0.85 0.55 0 1 0.6 0
          1 0.55 0 0.95 0.6 0
          0.95 0.55 0 0.1 0.7 0
          0 0.7 0 0.1 0.65 0
          0.05 0.7 0 0 0.65 0
          0.05 0.65 0 0.2 0.7 0
          0.2 0.65 0 0.15 0.7 0
          0.15 0.65 0 0.3 0.7 0
          0.3 0.65 0 0.25 0.7 0
          0.25 0.65 0 0.4 0.7 0
          0.4 0.65 0 0.35 0.7 0
          0.35 0.65 0 0.5 0.7 0
          0.5 0.65 0 0.45 0.7 0
          0.45 0.65 0 0.6 0.7 0
          0.6 0.65 0 0.55 0.7 0
          0.55 0.65 0 0.7 0.7 0
          0.7 0.65 0 0.65 0.7 0
          0.65 0.65 0 0.8 0.7 0
          0.8 0.65 0 0.75 0.7 0
          0.75 0.65 0 0.9 0.7 0
          0.9 0.65 0 0.85 0.7 0
          0.85 0.65 0 1 0.7 0
          1 0.65 0 0.95 0.7 0
          0.95 0.65 0 0.1 0.8 0
          0 0.8 0 0.1 0.75 0
          0.05 0.8 0 0 0.75 0
          0.05 0.75 0 0.2 0.8 0
          0.2 0.75 0 0.15 0.8 0
          0.15 0.75 0 0.3 0.8 0
          0.3 0.75 0 0.25 0.8 0
          0.25 0.75 0 0.4 0.8 0
          0.4 0.75 0 0.35 0.8 0
          0.35 0.75 0 0.5 0.8 0
          0.5 0.75 0 0.45 0.8 0
          0.45 0.75 0 0.6 0.8 0
          0.6 0.75 0 0.55 0.8 0
          0.55 0.75 0 0.7 0.8 0
          0.7 0.75 0 0.65 0.8 0
          0.65 0.75 0 0.8 0.8 0
          0.8 0.75 0 0.75 0.8 0
          0.75 0.75 0 0.9 0.8 0
          0.9 0.75 0 0.85 0.8 0
          0.85 0.75 0 1 0.8 0
          1 0.75 0 0.95 0.8 0
          0.95 0.75 0 0.1 0.9 0
          0 0.9 0 0.1 0.85 0
          0.05 0.9 0 0 0.85 0
          0.05 0.85 0 0.2 0.9 0