<?xml version="1.0"?>
<VTKFile type="UnstructuredGrid" version="0.1" byte_order="LittleEndian" compressor="vtkZLibDataCompressor">
  <UnstructuredGrid>
    <Piece NumberOfPoints="441" NumberOfCells="100">
      <PointData>
        <DataArray type="Float64" Name="u" format="ascii" RangeMin="-0.19527003048" RangeMax="1">
          2.1217346905e-16 -1.5179066305e-16 -0.005072347933 2.8814018447e-17 6.703706887e-16 -0.0019480481519
          -0.0012419271776 9.4038056844e-16 -0.00019403768416 -2.9375668705e-15 -0.019151561722 -5.0809655134e-15
          -0.0094395612049 -0.011158603762 -0.0049387729285 -7.0195212804e-15 -0.036771806779 -1.9966347506e-14
          -0.019514572771 -0.02799274847 -0.014471220508 -1.0272189284e-14 -0.050715834606 -3.5075922156e-14
          -0.027581012886 -0.044624253645 -0.024080704276 -1.1494910613e-14 -0.055941447508 -4.4279686193e-14
          -0.030615804052 -0.05466200677 -0.02991878521 -1.0267621575e-14 -0.050704339141 -4.4267333673e-14
          -0.027573671509 -0.054653601924 -0.0299130815 -7.0192882521e-15 -0.036772625587 -3.5061395482e-14
          -0.019515963922 -0.044614976681 -0.024074780376 -2.9444335134e-15 -0.019173065735 -1.9981810697e-14
          -0.0094543455081 -0.028005284142 -0.014480660831 -1.5661760435e-16 -0.0050893622401 -5.1101658461e-15
          -0.0019588989228 -0.01118292376 -0.0049552270158 2.1235545283e-16 2.7036881878e-17 6.6489933584e-16
          9.3673795369e-16 -0.0012486624392 -0.00019779708749 -0.011247486848 -1.5188655926e-16 -0.0082414767021
          -0.0030292374487 -3.7498231932e-16 -0.0021919734973 -0.037620969549 -0.028555382931 -0.023245524804
          -0.017307020656 -0.067519357482 -0.052573752847 -0.052870631673 -0.040706722856 -0.090238922061
          -0.071219627702 -0.080367140488 -0.063091521987 -0.098606080216 -0.07815597055 -0.096533910528
          -0.076445295917 -0.090186760313 -0.071196216694 -0.096502391698 -0.076429884092 -0.067470423167
          -0.052561677367 -0.080306711542 -0.063067720597 -0.037617681413 -0.028573503393 -0.052842576664
          -0.040710221529 -0.011263426885 -0.0082609996037 -0.023260690694 -0.017332807686 -1.5496822648e-16
          -3.8476312406e-16 -0.003037478803 -0.0022002823761 -0.017174934682 -2.5395039522e-16 -0.014185063684
          -0.0046922786734 -7.837988415e-16 -0.0038419345743 -0.055499665206 -0.046533653111 -0.034936702854
          -0.029064084696 -0.096552428255 -0.082095142884 -0.076723785552 -0.064795355978 -0.1264202605
          -0.10855307029 -0.11357265454 -0.097110806179 -0.13712771212 -0.11817706834 -0.13449596072
          -0.11579947003 -0.12622563166 -0.10844599459 -0.13438641882 -0.1157376347 -0.096305055878
          -0.081971603375 -0.11332569818 -0.096979065015 -0.055354504737 -0.046479679161 -0.076512316176
          -0.064699704949 -0.017147890816 -0.014187503194 -0.034861814853 -0.02904862315 -2.5877323253e-16
          -8.008366323e-16 -0.0046915461109 -0.0038484144247 -0.02370720453 -4.5678536902e-16 -0.020332765256
          -0.0066312924035 -1.4615080145e-15 -0.0056453226563 -0.074198702078 -0.06470642856 -0.047460297986
          -0.041018786515 -0.12508354372 -0.11099008877 -0.10095725928 -0.088826278241 -0.16001997861
          -0.14379771441 -0.14521649409 -0.12977596267 -0.17204034067 -0.15535329597 -0.16914580135
          -0.15253768132 -0.15953890441 -0.14347734695 -0.16888273873 -0.15236033273 -0.12440706138
          -0.11055839288 -0.14458356763 -0.1293609798 -0.073705844522 -0.064417391585 -0.10032658562
          -0.088437563673 -0.023551819805 -0.020254484628 -0.047143866733 -0.040846413509 -4.5829520688e-16
          -1.4744691876e-15 -0.006593613488 -0.0056298439378 -0.03144841044 -5.4476073407e-16 -0.027362048936
          -0.0087884197054 -1.7964249939e-15 -0.007533725638 -0.093440117217 -0.083935289074 -0.061603458342
          -0.054418611153 -0.14929658716 -0.13825804332 -0.12364172784 -0.11280893225 -0.18370835676
          -0.17399583423 -0.16958217564 -0.15905001729 -0.19463201563 -0.18588897725 -0.19210014681
          -0.1830690309 -0.18286079012 -0.17332938436 -0.19164665366 -0.18270835412 -0.14800679431
          -0.13728407727 -0.16843106252 -0.15815986849 -0.092373143873 -0.083175960702 -0.12236818691
          -0.11187363923 -0.031049431647 -0.027100465959 -0.060851771592 -0.053904768621 -5.425292993e-16
          -1.8013793092e-15 -0.0086824435136 -0.0074698793771 -0.041022970042 -1.6437926252e-15 -0.036112078556
          -0.012719056371 -4.8679574311e-15 -0.010879835633 -0.10925285818 -0.10216280871 -0.075935068986
          -0.068686128211 -0.15684175332 -0.15650870492 -0.1370634605 -0.13249178825 -0.17828917678
          -0.18646542664 -0.1702908804 -0.17451202188 -0.18349839798 -0.19527003048 -0.18245219761
          -0.19330653984 -0.17729632434 -0.18548717861 -0.18193907745 -0.19279109897 -0.15514079094
          -0.15494312137 -0.16886980449 -0.17315369886 -0.10760262603 -0.10077864351 -0.13524530874
          -0.1308930898 -0.040293961285 -0.03554790159 -0.074667919907 -0.067673391011 -1.6081697981e-15
          -4.7858714139e-15 -0.012489558487 -0.010709341597 -0.051874368445 -1.2548742363e-15 -0.046074860411
          -0.015731627476 -4.0628853796e-15 -0.01301661222 -0.10958598674 -0.11329331558 -0.088340816266
          -0.083803713843 -0.11897912697 -0.14631764487 -0.11907663504 -0.13419422751 -0.10751532231
          -0.15419659006 -0.11400667769 -0.15238228778 -0.10081772386 -0.15410433042 -0.10257166203
          -0.15432437572 -0.10713839348 -0.15338813269 -0.1024039067 -0.153919254 -0.11795185532
          -0.14475624216 -0.11332808682 -0.15116177932 -0.10805294374 -0.11153401281 -0.11768895443
          -0.13239441608 -0.050950032917 -0.045210603145 -0.086910997239 -0.082345898035 -1.2102566492e-15
          -3.9198548195e-15 -0.015428584672 -0.012756314326 -0.060457828537 -1.1853186041e-14 -0.058573085555
          -0.032316764424 -2.9842376735e-14 -0.025582511159 -0.051445107377 -0.092028447474 -0.070494011779
          -0.084366675145 0.024170169307 -0.066688214198 -0.01626816701 -0.085165984929 0.083874057975
          -0.030673100475 0.058844763895 -0.046666068972 0.10456742313 -0.016816840298 0.099665402518
          -0.02020142058 0.082780494356 -0.030982126916 0.099066900988 -0.020401797489 0.022738059621
          -0.066709415609 0.057453845366 -0.046915763471 -0.051901865555 -0.09123405256 -0.017350537016
          -0.084765113372 -0.060031735284 -0.057739850189 -0.070253703568 -0.083326037468 -1.1722985552e-14
          -2.9409806639e-14 -0.032022066812 -0.025221847219 0.014282940548 -4.891424597e-14 -0.046667674659
          -0.019279825753 -3.8056305274e-14 -0.022115573367 0.21484385505 0.031854916914 0.093277858859
          -0.03952659527 0.3772660707 0.16884492497 0.31672648017 0.11181921238 0.45138296587
          0.24304097555 0.42020993899 0.21157911496 0.47561418553 0.26864691217 0.47046800605
          0.26290557698 0.44963735566 0.24133463319 0.46961816949 0.26204126624 0.37407208191
          0.16608396924 0.41763999308 0.20919728726 0.21099449809 0.029529472301 0.31302411035
          0.10903864738 0.012725688517 -0.04706814843 0.090192168572 -0.040855907635 -4.8475153079e-14
          -3.695450782e-14 -0.018739574078 -0.021922555521 1 0.5 0.24981579291
          1 -8.3831185902e-14 0.017852394761 1 0.54429098531 1
          0.45951049022 1 0.65461464538 1 0.60719409498 1
          0.70809420175 1 0.68950891021 1 0.72199936483 1
          0.71889858824 1 0.70711179685 1 0.71837937161 1
          0.65249269574 1 0.687995986 1 0.54136168002 1
          0.60449760356 1 0.24696464706 1 0.45621988913 0.5
          -8.4058245945e-14 1 0.016095588766
        </DataArray>
        <DataArray type="Float64" Name="v" format="ascii" RangeMin="-0.35987117972" RangeMax="0.36288266639">
          -2.1235371438e-16 -3.3696976621e-18 0.0049944472508 9.18989495e-17 -9.1140685563e-16 0.001224267969
          0.0019311892503 -6.7907404754e-16 0.00019825240962 1.8351041675e-16 0.009271639512 5.3069839309e-16
          0.0025036321753 0.0076289192547 0.0020434662281 2.0642814963e-16 0.0092726637783 8.3948113961e-16
          0.0025550763504 0.0098153139179 0.0026980121597 1.2211208554e-16 0.0056085743043 7.0060424035e-16
          0.0015488407867 0.0078097405569 0.002167328616 -4.7452445973e-19 -6.121284327e-06 2.5521861334e-16
          -1.5169588123e-06 0.0029257560155 0.0008112016321 -1.2231247015e-16 -0.0056102490331 -2.5796044861e-16
          -0.0015485988667 -0.0029350030219 -0.00081338165462 -2.0553392522e-16 -0.0092593190984 -6.9895362453e-16
          -0.0025503327818 -0.0078025134468 -0.0021643392591 -1.8299047998e-16 -0.0092651900926 -8.3590152093e-16
          -0.0025013279255 -0.0098020647732 -0.0026933046753 2.4088537175e-18 -0.0050078733215 -5.3209870406e-16
          -0.0012282724088 -0.0076336370758 -0.0020448444791 2.1275933335e-16 -9.7789772608e-17 9.0913735741e-16
          6.7398191951e-16 -0.0019441688929 -0.00020147959509 0.020382344808 2.9684986858e-15 0.01129802367
          0.010211337078 5.033990518e-15 0.0050888246963 0.03310045229 0.019581852008 0.028353910919
          0.016405325492 0.031943527664 0.019262446422 0.034236698136 0.020501027115 0.019087223588
          0.011595271842 0.026675252289 0.016161354476 -2.4517893389e-05 -1.1254436822e-05 0.0099258137825
          0.0060415527186 -0.019100546848 -0.011596970151 -0.0099648711509 -0.0060581837911 -0.031900889348
          -0.01923379123 -0.026657122455 -0.016145359395 -0.033068075891 -0.019565192978 -0.034188410088
          -0.020471859949 -0.020413774295 -0.011321299213 -0.02835423469 -0.016410203553 -2.9910379872e-15
          -5.0850444989e-15 -0.010249938309 -0.0051130521124 0.046215182099 8.579508782e-15 0.031959565837
          0.025060979483 2.2471261552e-14 0.016788029467 0.06944008658 0.049677022455 0.061330622008
          0.04326250763 0.064645139196 0.047100321507 0.070325716041 0.05083817339 0.037942974266
          0.027914498067 0.053411998569 0.039137210992 -9.2113770194e-05 -4.6451762569e-05 0.019628515462
          0.014483539922 -0.038034035886 -0.027949376597 -0.019787406235 -0.014560492713 -0.06456487118
          -0.047037006265 -0.053413935225 -0.039119008196 -0.069319163278 -0.049611295501 -0.070199810991
          -0.050756837012 -0.046222104386 -0.031987929609 -0.061264963618 -0.043241687649 -8.6185073731e-15
          -2.2593827794e-14 -0.025109658398 -0.016835837761 0.082873011952 1.665308912e-14 0.063013165572
          0.046497482941 4.9870756708e-14 0.034819219811 0.11798727976 0.092181397246 0.1068105405
          0.082394331785 0.10594019738 0.084328416521 0.11713381133 0.092453901663 0.060773039961
          0.04898108798 0.086407825651 0.069258626837 -0.00027761549763 -0.00016276584241 0.03119737537
          0.025251839156 -0.061113600093 -0.04916287001 -0.031695293297 -0.02553873216 -0.10583351957
          -0.084227685599 -0.086528688618 -0.069297914281 -0.11763509881 -0.091967034126 -0.11685494955
          -0.092260075251 -0.08270318446 -0.062961584641 -0.1065068306 -0.082240197874 -1.6682373327e-14
          -5.0014085184e-14 -0.046470926497 -0.034847864847 0.13097453495 2.8094554682e-14 0.10543060817
          0.075666662187 8.78623134e-14 0.059828644514 0.1772998516 0.14639361213 0.16449377563
          0.13413287707 0.15211809802 0.1288244535 0.17187720017 0.14378672918 0.084579500666
          0.072861098788 0.12190875326 0.10424274409 -0.00064303222892 -0.0004350379289 0.042957097252
          0.037220019423 -0.085461002143 -0.07342768594 -0.044137119193 -0.038009688812 -0.15205878354
          -0.12872444325 -0.12234901797 -0.10448948146 -0.17650656605 -0.14584911087 -0.17137130908
          -0.14339986423 -0.13033710871 -0.10507247641 -0.16366169595 -0.1336078538 -2.8032022836e-14
          -8.7839163118e-14 -0.075368124592 -0.0597032777 0.19312249668 4.3509931141e-14 0.15955997391
          0.11505561244 1.4285763114e-13 0.0936217276 0.24095685041 0.20937464436 0.23301510403
          0.19734815429 0.19331467114 0.17431019377 0.22531208171 0.1997717686 0.10259857769
          0.094963797371 0.1509742106 0.13810179925 -0.0011485981695 -0.00089286919899 0.051310070995
          0.047895535838 -0.10431299351 -0.096244290132 -0.053457234391 -0.049549993855 -0.19351173314
          -0.17434756951 -0.1520108331 -0.13881243697 -0.23956965645 -0.20829359051 -0.22464189461
          -0.19916407185 -0.19153490753 -0.15852866489 -0.23127577597 -0.19611558769 -4.3199115935e-14
          -1.42173662e-13 -0.11413068486 -0.093074452396 0.26218978847 6.7084463238e-14 0.22832723273
          0.16663852659 2.1368392586e-13 0.13829674298 0.29111327969 0.26927176913 0.29841444613
          0.26786558542 0.20870419102 0.20628055735 0.25673023517 0.24564954304 0.10348747767
          0.10605263232 0.15657089407 0.15822461057 -0.0015198418751 -0.0013936161824 0.050776825271
          0.052535515156 -0.10597922017 -0.10823065081 -0.053681299792 -0.055167482836 -0.20948238619
          -0.20675390748 -0.15834998549 -0.15966504462 -0.28942516513 -0.26766755908 -0.25628281154
          -0.24503766444 -0.25946156533 -0.22615259371 -0.29584334637 -0.26565761631 -6.6329279772e-14
          -2.1166910375e-13 -0.16477612246 -0.13694078384 0.34384055557 1.0533826791e-13 0.29778557586
          0.24628322323 3.4225554968e-13 0.19895116974 0.27924940337 0.29967469999 0.33604620868
          0.3224160138 0.16883412716 0.19732082175 0.22136918069 0.25214230479 0.076081730612
          0.093895612668 0.12035463978 0.14443984111 -0.0013116898599 -0.0015224744851 0.036219267802
          0.045515010583 -0.078463376162 -0.096535328797 -0.038782687188 -0.048464873133 -0.17026277314
          -0.19849495188 -0.1223933584 -0.1464980601 -0.27827997135 -0.29822914937 -0.22180996486
          -0.2521172524 -0.34007308635 -0.29448358672 -0.33338378278 -0.31966464792 -1.0392454028e-13
          -3.3809615977e-13 -0.24326655489 -0.19653868411 0.25972812612 2.4918108698e-13 0.36288266639
          0.32408048506 5.2473843521e-13 0.28103017625 0.14182675717 0.22494717484 0.18258369008
          0.30772962445 0.068154259157 0.12530896801 0.10298704868 0.1684926257 0.028398731349
          0.052707057764 0.044749102993 0.086292209105 -0.00050710807541 -0.00092963162056 0.013733221762
          0.024710329946 -0.029417148245 -0.054466576929 -0.014754333737 -0.026536637161 -0.069186884924
          -0.12671640361 -0.045780218774 -0.087967528095 -0.1421649722 -0.22473654457 -0.10380077361
          -0.16926592539 -0.25835771519 -0.35987117972 -0.18249928735 -0.30618341975 -2.4714090789e-13
          -5.1796683304e-13 -0.3211099477 -0.27783163083 2.5951929373e-14 1.298881599e-13 0.094358693642
          6.4610121808e-13 1.1754584089e-12 0.31178622172 1.4972497977e-14 0.058273693376 -9.3490434838e-15
          0.042487851115 -8.6465724543e-16 0.017694058763 4.0259083241e-14 0.041272399401 1.3688121756e-15
          0.0091073594024 -3.0495537771e-15 0.010326558464 2.7374962977e-17 -0.00011795055907 4.2883602465e-15
          0.0050816760099 -1.3336076807e-15 -0.0093673783371 -4.1497138296e-15 -0.0053464882941 8.8172240997e-16
          -0.018039406397 3.3214004374e-15 -0.010558261071 -1.4762014751e-14 -0.058282712808 -4.0249493654e-14
          -0.041646274852 -2.6743111934e-14 -0.094799238559 9.4293215215e-15 -0.042614480646 -1.2835431737e-13
          -1.16597955e-12 -6.4275444837e-13 -0.3100592636
        </DataArray>
        <DataArray type="Float64" Name="p" format="ascii" RangeMin="-83.703052302" RangeMax="82.978127801">
          -0.31909224188 -0.40967417982 -0.3210821987 -0.22708326262 -0.36438321085 -0.36537818926
          -0.27408273066 -0.27308775225 -0.31923297075 -0.54869251958 -0.38716381482 -0.4791833497
          -0.4679281672 -0.35412300676 -0.41665317823 -0.50828038109 -0.34999634474 -0.52848645033
          -0.42913836291 -0.36858007978 -0.44853326506 -0.29538977685 -0.19863128537 -0.40183507897
          -0.24701053111 -0.27431381506 -0.33807444701 0.021874104562 0.021861788739 -0.13675783614
          0.02186794665 -0.088384748316 -0.11257129223 0.33872835973 0.24203778267 0.18030123214
          0.2903830712 0.13194978571 0.15612550893 0.55103729452 0.39293584015 0.44488282712
          0.47198656734 0.31748681141 0.38118481927 0.59169410039 0.43022451509 0.57136569745
          0.51095930774 0.41158017762 0.49147293754 0.45330214438 0.36464230501 0.52249812238
          0.4089722247 0.39743341005 0.45996576622 0.36267500059 0.27053307534 0.40798857249
          0.31660403797 0.31758769018 0.36278813133 -0.26320303136 -0.056818049393 -0.29214261503
          -0.16001054037 -0.14195065601 -0.21704663552 -0.35214648919 -0.369655152 -0.30767476027
          -0.33089888352 -0.31730026244 -0.33364830359 -0.33472337581 -0.3516517278 -0.17721110028
          -0.18792119282 -0.24725568136 -0.26078474821 0.022809820685 0.022335804712 -0.077200639796
          -0.082792694056 0.22215605451 0.23209691859 0.1224829376 0.12721636165 0.36106453234
          0.37700018625 0.29161029342 0.30454855242 0.39572088071 0.4129726979 0.37839270652
          0.39498644207 0.30770328159 0.3361727933 0.35171208115 0.3745727456 0.10131974642
          0.18592641088 0.20451151401 0.26104960209 -0.32091428869 -0.0048934551552 -0.29205866002
          -0.16290387192 -0.030855752274 -0.16145720615 -0.44095493073 -0.39655070996 -0.38093460971
          -0.34430468499 -0.39211430323 -0.35470728283 -0.41653461698 -0.3756289964 -0.21563029703
          -0.19642069865 -0.30387230013 -0.27556399074 0.026127340861 0.024468580773 -0.094751478083
          -0.08597605894 0.26633294113 0.24424449782 0.14623014099 0.1343565393 0.43972337389
          0.40039395312 0.35302815751 0.32231922547 0.48700234271 0.44136161171 0.4633628583
          0.42087778241 0.36815820543 0.33793074351 0.42758027407 0.38964617761 0.053333408431
          0.077326577428 0.21074580693 0.20762866047 -0.56381444659 -0.1518031539 -0.44236436764
          -0.35780880024 -0.078348304526 -0.26035633608 -0.70605911208 -0.57350702141 -0.63493677934
          -0.50793569452 -0.59183087697 -0.4919725901 -0.64894499453 -0.53273980575 -0.31759084797
          -0.2666105725 -0.45471086247 -0.3792915813 0.03413048427 0.030128912565 -0.14173018185
          -0.11824082997 0.38249476475 0.32441385294 0.20831262451 0.17727138275 0.64927887387
          0.54450112388 0.51588681931 0.43445748841 0.75803387745 0.62251811008 0.70365637566
          0.58350961698 0.61671099767 0.49243460155 0.68737243756 0.55747635582 0.20776231545
          0.13054786194 0.41223665656 0.31149123174 -1.1404687236 -0.54546327732 -0.85214158509
          -0.84296600046 -0.34863321561 -0.60038740035 -1.2058610841 -0.95596009807 -1.1731649038
          -0.90405084158 -0.95197022844 -0.77190055271 -1.0789156562 -0.86393032539 -0.48903780878
          -0.40331432838 -0.72050401861 -0.58760744054 0.049734325032 0.041932404651 -0.21965174188
          -0.18069096186 0.58179302315 0.48214389395 0.31576367409 0.2620381493 1.0289152212
          0.83909704751 0.80535412215 0.66062047073 1.2683654583 1.0131996679 1.1486403397
          0.92614835769 1.1996233556 0.90816717664 1.233994407 0.96068342226 0.61304450092
          0.41040340819 0.90633392827 0.65928529241 -2.0985143549 -1.5536367552 -1.6194915393
          -1.8260755551 -1.0495500162 -1.3345207778 -2.087848969 -1.6468550265 -2.093181662
          -1.6331732829 -1.486995323 -1.2194827757 -1.787422146 -1.4331689011 -0.73274748797
          -0.61089264838 -1.1098714055 -0.91518771206 0.074061826215 0.061898075624 -0.32934283088
          -0.27449728638 0.86964756053 0.72572029184 0.47185469337 0.39380918373 1.5947192199
          1.3118172205 1.2321833902 1.0187687562 2.164227743 1.7162966006 1.8794734814
          1.5140569106 2.1637254302 1.6816743929 2.1639765866 1.6989854968 1.6275887849
          1.1203166429 1.8956571076 1.4009955179 -4.2348852451 -3.0487848839 -3.1666998
          -3.6418350645 -2.3012108195 -2.7339553098 -3.3107664152 -2.6993076921 -3.7728258301
          -2.933003746 -2.2141795416 -1.8505874323 -2.7624729784 -2.2749475622 -1.0002037867
          -0.86647563735 -1.6071916642 -1.3585315348 0.10151434221 0.087788084215 -0.44934472225
          -0.38934377657 1.1871828613 1.0284152109 0.64434860176 0.55810164757 2.358563174
          1.976641197 1.7728730176 1.5025282039 3.3994770847 2.7818524138 2.8790201294
          2.3792468054 4.2844484939 3.224086962 3.8419627893 3.0029696879 3.1153750952
          2.3714819401 3.6999117945 2.7977844511 -6.7857390712 -7.6031044078 -5.5103121582
          -7.1944217395 -5.3259446458 -5.418128402 -5.3232172579 -4.3169918366 -6.0544781646
          -4.9136519974 -2.7834252187 -2.4988023802 -4.0533212383 -3.4078971084 -1.2274169079
          -1.1138103473 -2.0054210633 -1.8063063637 0.11544834616 0.10848134419 -0.55598428087
          -0.50266450156 1.442303609 1.3147432352 0.77887597758 0.71161228967 2.9449606561
          2.651761915 2.1936321325 1.9832525751 5.408770553 4.4041238189 4.1768656045
          3.5279428669 6.8073768284 5.5459126612 6.1080736907 4.97501824 7.610593258
          5.3629841766 7.2089850432 5.4544484189 -16.231753236 -15.633631178 -11.508746153
          -15.932692207 -11.618367793 -11.563556973 -5.2278441768 -5.2755307174 -10.729798706
          -8.3921384354 -3.1651377978 -2.9742815083 -4.1964909873 -4.1249061128 -1.0466406707
          -1.1370287893 -2.1058892343 -2.0556551488 0.10581153441 0.11062994029 -0.47041456815
          -0.51319942451 1.2338590714 1.3380813402 0.66983530292 0.72435564025 3.306484274
          3.125722465 2.2701716727 2.2319019026 5.2639608808 5.3363657169 4.2852225774
          4.231044091 16.138312878 11.472844853 10.701136879 8.4046052851 15.48110387
          11.545848564 15.809708374 11.509346709 -3.894745683 -83.703052302 -10.063249459
          -43.798898992 -49.66834174 -29.8657956 -5.9768817933 -5.6023629851 -4.9358137382
          -7.8328062222 -1.086821854 -2.1259798259 -3.5318518237 -3.8641714055 -0.80384932902
          -0.92524499986 -0.94533559152 -1.5256124129 0.08546209037 0.095636812391 -0.35919361932
          -0.41480409373 0.96716634568 1.1005127086 0.52631421803 0.59807476048 1.1712613519
          2.238872813 1.0692138488 1.6696927608 5.9796259655 5.6217934232 3.5754436587
          3.9303331181 3.7657556517 9.9520342649 4.8726908086 7.786913844 82.978127801
          49.229615835 43.371941726 29.59082505
        </DataArray>
      </PointData>
      <CellData>
        <DataArray type="Int32" Name="libmesh_elem_id" format="ascii" RangeMin="0" RangeMax="99">
          0 1 2 3 4 5
          6 7 8 9 10 11
          12 13 14 15 16 17
          18 19 20 21 22 23
          24 25 26 27 28 29
          30 31 32 33 34 35
          36 37 38 39 40 41
          42 43 44 45 46 47
          48 49 50 51 52 53
          54 55 56 57 58 59
          60 61 62 63 64 65
          66 67 68 69 70 71
          72 73 74 75 76 77
          78 79 80 81 82 83
          84 85 86 87 88 89
          90 91 92 93 94 95
          96 97 98 99
        </DataArray>
        <DataArray type="Int32" Name="subdomain_id" format="ascii" RangeMin="0" RangeMax="0">
          0 0 0 0 0 0
          0 0 0 0 0 0
          0 0 0 0 0 0
          0 0 0 0 0 0
          0 0 0 0 0 0
          0 0 0 0 0 0
          0 0 0 0 0 0
          0 0 0 0 0 0
          0 0 0 0 0 0
          0 0 0 0 0 0
          0 0 0 0 0 0
          0 0 0 0 0 0
          0 0 0 0 0 0
          0 0 0 0 0 0
          0 0 0 0 0 0
          0 0 0 0 0 0
          0 0 0 0
        </DataArray>
        <DataArray type="Int32" Name="processor_id" format="ascii" RangeMin="0" RangeMax="0">
          0 0 0 0 0 0
          0 0 0 0 0 0
          0 0 0 0 0 0
          0 0 0 0 0 0
          0 0 0 0 0 0
          0 0 0 0 0 0
          0 0 0 0 0 0
          0 0 0 0 0 0
          0 0 0 0 0 0
          0 0 0 0 0 0
          0 0 0 0 0 0
          0 0 0 0 0 0
          0 0 0 0 0 0
          0 0 0 0 0 0
          0 0 0 0 0 0
          0 0 0 0 0 0
          0 0 0 0
        </DataArray>
      </CellData>
      <Points>
        <DataArray type="Float64" Name="Points" NumberOfComponents="3" format="ascii" RangeMin="0" RangeMax="1.4142135624">
          0 0 0 0.1 0 0
          0.1 0.1 0 0 0.1 0
          0.05 0 0 0.1 0.05 0
          0.05 0.1 0 0 0.05 0
          0.05 0.05 0 0.2 0 0
          0.2 0.1 0 0.15 0 0
          0.2 0.05 0 0.15 0.1 0
          0.15 0.05 0 0.3 0 0
          0.3 0.1 0 0.25 0 0
          0.3 0.05 0 0.25 0.1 0
          0.25 0.05 0 0.4 0 0
          0.4 0.1 0 0.35 0 0
          0.4 0.05 0 0.35 0.1 0
          0.35 0.05 0 0.5 0 0
          0.5 0.1 0 0.45 0 0
          0.5 0.05 0 0.45 0.1 0
          0.45 0.05 0 0.6 0 0
          0.6 0.1 0 0.55 0 0
          0.6 0.05 0 0.55 0.1 0
          0.55 0.05 0 0.7 0 0
          0.7 0.1 0 0.65 0 0
          0.7 0.05 0 0.65 0.1 0
          0.65 0.05 0 0.8 0 0
          0.8 0.1 0 0.75 0 0
          0.8 0.05 0 0.75 0.1 0
          0.75 0.05 0 0.9 0 0
          0.9 0.1 0 0.85 0 0
          0.9 0.05 0 0.85 0.1 0
          0.85 0.05 0 1 0 0
          1 0.1 0 0.95 0 0
          1 0.05 0 0.95 0.1 0
          0.95 0.05 0 0.1 0.2 0
          0 0.2 0 0.1 0.15 0
          0.05 0.2 0 0 0.15 0
          0.05 0.15 0 0.2 0.2 0
          0.2 0.15 0 0.15 0.2 0
          0.15 0.15 0 0.3 0.2 0
          0.3 0.15 0 0.25 0.2 0
          0.25 0.15 0 0.4 0.2 0
          0.4 0.15 0 0.35 0.2 0
          0.35 0.15 0 0.5 0.2 0
          0.5 0.15 0 0.45 0.2 0
          0.45 0.15 0 0.6 0.2 0
          0.6 0.15 0 0.55 0.2 0
          0.55 0.15 0 0.7 0.2 0
          0.7 0.15 0 0.65 0.2 0
          0.65 0.15 0 0.8 0.2 0
          0.8 0.15 0 0.75 0.2 0
          0.75 0.15 0 0.9 0.2 0
          0.9 0.15 0 0.85 0.2 0
          0.85 0.15 0 1 0.2 0
          1 0.15 0 0.95 0.2 0
          0.95 0.15 0 0.1 0.3 0
          0 0.3 0 0.1 0.25 0
          0.05 0.3 0 0 0.25 0
          0.05 0.25 0 0.2 0.3 0
          0.2 0.25 0 0.15 0.3 0
          0.15 0.25 0 0.3 0.3 0
          0.3 0.25 0 0.25 0.3 0
          0.25 0.25 0 0.4 0.3 0
          0.4 0.25 0 0.35 0.3 0
          0.35 0.25 0 0.5 0.3 0
          0.5 0.25 0 0.45 0.3 0
          0.45 0.25 0 0.6 0.3 0
          0.6 0.25 0 0.55 0.3 0
          0.55 0.25 0 0.7 0.3 0
          0.7 0.25 0 0.65 0.3 0
          0.65 0.25 0 0.8 0.3 0
          0.8 0.25 0 0.75 0.3 0
          0.75 0.25 0 0.9 0.3 0
          0.9 0.25 0 0.85 0.3 0
          0.85 0.25 0 1 0.3 0
          1 0.25 0 0.95 0.3 0
          0.95 0.25 0 0.1 0.4 0
          0 0.4 0 0.1 0.35 0
          0.05 0.4 0 0 0.35 0
          0.05 0.35 0 0.2 0.4 0
          0.2 0.35 0 0.15 0.4 0
          0.15 0.35 0 0.3 0.4 0
          0.3 0.35 0 0.25 0.4 0
          0.25 0.35 0 0.4 0.4 0
          0.4 0.35 0 0.35 0.4 0
          0.35 0.35 0 0.5 0.4 0
          0.5 0.35 0 0.45 0.4 0
          0.45 0.35 0 0.6 0.4 0
          0.6 0.35 0 0.55 0.4 0
          0.55 0.35 0 0.7 0.4 0
          0.7 0.35 0 0.65 0.4 0
          0.65 0.35 0 0.8 0.4 0
          0.8 0.35 0 0.75 0.4 0
          0.75 0.35 0 0.9 0.4 0
          0.9 0.35 0 0.85 0.4 0
          0.85 0.35 0 1 0.4 0
          1 0.35 0 0.95 0.4 0
          0.95 0.35 0 0.1 0.5 0
          0 0.5 0 0.1 0.45 0
          0.05 0.5 0 0 0.45 0
          0.05 0.45 0 0.2 0.5 0
          0.2 0.45 0 0.15 0.5 0
          0.15 0.45 0 0.3 0.5 0
          0.3 0.45 0 0.25 0.5 0
          0.25 0.45 0 0.4 0.5 0
          0.4 0.45 0 0.35 0.5 0
          0.35 0.45 0 0.5 0.5 0
          0.5 0.45 0 0.45 0.5 0
          0.45 0.45 0 0.6 0.5 0
          0.6 0.45 0 0.55 0.5 0
          0.55 0.45 0 0.7 0.5 0
          0.7 0.45 0 0.65 0.5 0
          0.65 0.45 0 0.8 0.5 0
          0.8 0.45 0 0.75 0.5 0
          0.75 0.45 0 0.9 0.5 0
          0.9 0.45 0 0.85 0.5 0
          0.85 0.45 0 1 0.5 0
          1 0.45 0 0.95 0.5 0
          0.95 0.45 0 0.1 0.6 0
          0 0.6 0 0.1 0.55 0
          0.05 0.6 0 0 0.55 0
          0.05 0.55 0 0.2 0.6 0
          0.2 0.55 0 0.15 0.6 0
          0.15 0.55 0 0.3 0.6 0
          0.3 0.55 0 0.25 0.6 0
          0.25 0.55 0 0.4 0.6 0
          0.4 0.55 0 0.35 0.6 0
          0.35 0.55 0 0.5 0.6 0
          0.5 0.55 0 0.45 0.6 0
          0.45 0.55 0 0.6 0.6 0
          0.6 0.55 0 0.55 0.6 0
          0.55 0.55 0 0.7 0.6 0
          0.7 0.55 0 0.65 0.6 0
          0.65 0.55 0 0.8 0.6 0
          0.8 0.55 0 0.75 0.6 0
          0.75 0.55 0 0.9 0.6 0
          0.9 0.55 0 0.85 0.6 0
          0.85 0.55 0 1 0.6 0
          1 0.55 0 0.95 0.6 0
          0.95 0.55 0 0.1 0.7 0
          0 0.7 0 0.1 0.65 0
          0.05 0.7 0 0 0.65 0
          0.05 0.65 0 0.2 0.7 0
          0.2 0.65 0 0.15 0.7 0
          0.15 0.65 0 0.3 0.7 0
          0.3 0.65 0 0.25 0.7 0
          0.25 0.65 0 0.4 0.7 0
          0.4 0.65 0 0.35 0.7 0
          0.35 0.65 0 0.5 0.7 0
          0.5 0.65 0 0.45 0.7 0
          0.45 0.65 0 0.6 0.7 0
          0.6 0.65 0 0.55 0.7 0
          0.55 0.65 0 0.7 0.7 0
          0.7 0.65 0 0.65 0.7 0
          0.65 0.65 0 0.8 0.7 0
          0.8 0.65 0 0.75 0.7 0
          0.75 0.65 0 0.9 0.7 0
          0.9 0.65 0 0.85 0.7 0
          0.85 0.65 0 1 0.7 0
          1 0.65 0 0.95 0.7 0
          0.95 0.65 0 0.1 0.8 0
          0 0.8 0 0.1 0.75 0
          0.05 0.8 0 0 0.75 0
          0.05 0.75 0 0.2 0.8 0
          0.2 0.75 0 0.15 0.8 0
          0.15 0.75 0 0.3 0.8 0
          0.3 0.75 0 0.25 0.8 0
          0.25 0.75 0 0.4 0.8 0
          0.4 0.75 0 0.35 0.8 0
          0.35 0.75 0 0.5 0.8 0
          0.5 0.75 0 0.45 0.8 0
          0.45 0.75 0 0.6 0.8 0
          0.6 0.75 0 0.55 0.8 0
          0.55 0.75 0 0.7 0.8 0
          0.7 0.75 0 0.65 0.8 0
          0.65 0.75 0 0.8 0.8 0
          0.8 0.75 0 0.75 0.8 0
          0.75 0.75 0 0.9 0.8 0
          0.9 0.75 0 0.85 0.8 0
          0.85 0.75 0 1 0.8 0
          1 0.75 0 0.95 0.8 0
          0.95 0.75 0 0.1 0.9 0
          0 0.9 0 0.1 0.85 0
          0.05 0.9 0 0 0.85 0
          0.05 0.85 0 0.2 0.9 0