<?xml version="1.0"?>
<VTKFile type="UnstructuredGrid" version="0.1" byte_order="LittleEndian" compressor="vtkZLibDataCompressor">
  <UnstructuredGrid>
    <Piece NumberOfPoints="441" NumberOfCells="200">
      <PointData>
        <DataArray type="Float64" Name="u" format="ascii" RangeMin="-0.00085519138445" RangeMax="0.00079589327764">
          -7.0470333225e-18 -5.5403320987e-16 -0.00016756379525 -4.1212623719e-15 -0.00085519138445 -0.00070733702286
          6.11744297e-17 4.7629537036e-05 -5.4786436367e-16 -1.3226670531e-16 -2.2299176316e-06 -9.6263459235e-16
          -0.00019396213012 -0.00032957009097 2.9579154343e-06 -2.0102310609e-17 1.9499027007e-05 -1.7883327347e-16
          -2.4765967349e-05 -6.6976937364e-05 1.5412309311e-05 2.9355566006e-18 2.4518563155e-05 -1.1095320496e-18
          1.0143037585e-05 4.279028954e-06 2.8374693419e-05 6.6446001988e-18 1.600923472e-05 2.3186906944e-17
          1.3386787625e-05 1.2938112355e-05 2.0152091272e-05 1.2666101953e-17 1.4185630368e-05 3.1893699153e-17
          2.1262020598e-05 1.5487650521e-05 1.4549419776e-05 3.8866905757e-17 2.7714959381e-05 9.3336472688e-17
          6.1669548296e-05 3.629602488e-05 1.9821182747e-05 1.1102139511e-16 4.9270354715e-05 3.0209679557e-16
          0.00017078056035 0.00010814352407 4.6303521091e-05 2.3339353446e-16 -4.153890548e-05 1.4950856724e-15
          0.00033273098582 0.00034519682847 5.3767154019e-05 2.9632366682e-18 -9.8537078269e-17 4.4953448143e-15
          4.4939014231e-15 0.00063067514001 -0.00015595328606 0.00076206560446 0.00044011427347 0.00050403183429
          3.9035100096e-16 0.00075492234059 1.426406302e-15 0.00033570142233 0.00020720048636 0.00033213769204
          0.00053827948319 0.00010947167403 7.1023838927e-05 0.00011954553338 0.00019555459405 3.5845360304e-05
          3.3310413119e-05 5.1238083605e-05 6.6287297702e-05 1.2870348195e-06 1.0876991995e-05 2.0244242359e-05
          1.5754720239e-05 -3.3332440522e-05 -8.3383993613e-06 2.601094133e-06 -1.3015492427e-05 -0.0001186465562
          -5.1195260153e-05 -2.219570907e-05 -6.4871960701e-05 -0.00035483951827 -0.00019519127182 -9.0666517576e-05
          -0.00020768107378 -0.00075212768636 -0.00051432558982 -0.00030536794597 -0.00055552587867 -3.8801047427e-16
          -1.141160881e-15 -0.00056015755074 -0.00075752944416 0.00066064558723 0.00079589327764 0.00071240815341
          2.7785624604e-16 0.00056469086307 1.2929531805e-15 0.00034740629579 0.00038106337828 0.00056912609176
          0.0004974384712 0.00011900313538 0.00012517830845 0.00022068141213 0.00020759785282 2.5630836405e-05
          3.3265509474e-05 6.7585417513e-05 5.9721152988e-05 -1.6527104679e-05 -8.6279079276e-06 8.8718206775e-06
          1.6001353598e-06 -6.6435717036e-05 -5.4655513895e-05 -2.7267307138e-05 -3.7090017517e-05 -0.00017953981017
          -0.00016470308528 -9.5998623272e-05 -0.000111330868 -0.00040755508733 -0.00041720407158 -0.00026583801508
          -0.00027778576502 -0.00061852163811 -0.00072277805639 -0.00059656363195 -0.00054452184295 -2.5339989712e-16
          -1.643266301e-15 -0.00067391612648 -0.00051334049493 0.00037033188623 0.00051776610809 0.00042517585504
          1.4190541055e-16 0.00029619726019 7.0593542544e-16 0.00023202326472 0.00029197755011 0.0004053469961
          0.00030921085568 8.9892833943e-05 0.00010550260434 0.00018118457736 0.00014967048622 1.7035405924e-05
          2.0222943077e-05 5.2660560008e-05 4.5520273071e-05 -2.0669062868e-05 -2.0630592509e-05 -1.9732463965e-06
          -3.0994669715e-06 -6.5454073492e-05 -6.9535372277e-05 -4.0819772682e-05 -3.9814682707e-05 -0.00014954159968
          -0.00017078155384 -0.00011089276431 -0.00010094416289 -0.00027929701559 -0.00034749675693 -0.00025149148753
          -0.00021074308385 -0.00034384610171 -0.00047065506042 -0.00044251988117 -0.00033596924419 -1.2192024741e-16
          -8.0589625915e-16 -0.00037473354309 -0.00025506459962 0.00017927142175 0.00026606787966 0.00020690851913
          6.4325797346e-17 0.00013700887819 3.3051046036e-16 0.00012843659661 0.00017644726145 0.00022836876255
          0.00016081887979 5.6011736592e-05 7.2493344582e-05 0.00011732217167 8.7831132608e-05 1.1030961091e-05
          1.3838711665e-05 3.7414446367e-05 2.9484985497e-05 -1.6388572068e-05 -1.9016243205e-05 -3.5680550872e-06
          -3.5174383287e-06 -4.7078888659e-05 -5.6995255339e-05 -3.5716570337e-05 -3.0226705311e-05 -9.4765456361e-05
          -0.00012157215427 -8.5228371153e-05 -6.8345350338e-05 -0.00015344729079 -0.00021017789589 -0.0001656975707
          -0.00012453073359 -0.00016561792554 -0.000241739471 -0.00024538350052 -0.0001721086795 -5.436408034e-17
          -3.4492944538e-16 -0.000175635099 -0.0001160426635 7.8220476905e-05 0.00012243291995 9.1604748093e-05
          2.6693715205e-17 5.7830033672e-05 1.4232851571e-16 6.1394451034e-05 9.0703782702e-05 0.00011145007675
          7.3637097337e-05 2.9323621623e-05 4.1247259924e-05 6.3629088243e-05 4.4159334343e-05 5.8509306353e-06
          8.1392719857e-06 2.2191324559e-05 1.5983269367e-05 -1.0458077201e-05 -1.3410991701e-05 -3.1973257897e-06
          -2.7361578101e-06 -2.7594391581e-05 -3.6800701758e-05 -2.4189319457e-05 -1.8481220024e-05 -5.018358864e-05
          -7.0219909514e-05 -5.2205609864e-05 -3.8166408645e-05 -7.3012118505e-05 -0.00010757285663 -9.0108894544e-05
          -6.2523019918e-05 -7.1622835014e-05 -0.00011063461949 -0.00011820222875 -7.790304717e-05 -2.21436737e-17
          -1.4574115519e-16 -7.6719649658e-05 -4.8007935167e-05 2.6632225856e-05 4.9319822208e-05 3.5914391943e-05
          8.7130542334e-18 1.9293596982e-05 5.3829183101e-17 2.2260415268e-05 3.9391905163e-05 4.663620457e-05
          2.5809391211e-05 1.122480527e-05 1.9303426244e-05 2.8788551315e-05 1.6512219576e-05 1.679921626e-06
          3.5919831686e-06 1.0523526652e-05 5.9355926991e-06 -5.7898981768e-06 -7.8928893397e-06 -2.4360844709e-06
          -2.2423974961e-06 -1.3225041203e-05 -1.9641273191e-05 -1.3520902279e-05 -9.4220946068e-06 -2.1240279144e-05
          -3.3896437933e-05 -2.657466815e-05 -1.727290432e-05 -2.7133018967e-05 -4.6799960106e-05 -4.1305338638e-05
          -2.4882491256e-05 -2.3675875914e-05 -4.402303735e-05 -4.9044560888e-05 -2.7281820576e-05 -6.9425253874e-18
          -5.4140057177e-17 -2.926256417e-05 -1.5141663444e-05 -4.7821651088e-06 1.0028674635e-05 6.83163229e-06
          -2.2855521781e-18 -4.1931899161e-06 5.7850624952e-18 -2.0600579116e-06 8.9289967182e-06 9.7067215469e-06
          -3.7970178561e-06 -5.2924491701e-07 4.6459970059e-06 6.7557319078e-06 -1.0402593e-06 -1.3081762074e-06
          -1.5543341655e-08 2.1521506868e-06 -8.120421324e-07 -2.8908762164e-06 -4.1502854072e-06 -2.1585961184e-06
          -2.0958841167e-06 -4.2859483545e-06 -8.1277516279e-06 -6.1794463781e-06 -3.6966110987e-06 -3.890521599e-06
          -1.1330737216e-05 -1.0019684439e-05 -4.5245960868e-06 1.0168826398e-07 -1.1902357984e-05 -1.2263019826e-05
          -2.551420373e-06 6.8192849203e-06 -7.3321792095e-06 -1.0584534715e-05 3.0820171741e-06 2.9757550687e-18
          -9.8100675468e-18 -3.9861703548e-06 6.2745600482e-06 -2.7527893187e-05 -1.7261821015e-05 -1.5291930762e-05
          -1.2172627339e-17 -2.4691033983e-05 -4.0524041492e-17 -1.4844079942e-05 -1.0116716314e-05 -1.4948850685e-05
          -2.1990467908e-05 -5.6809151245e-06 -4.0953378757e-06 -6.6062902961e-06 -9.3469563532e-06 -2.3525481664e-06
          -2.1624344214e-06 -2.810958595e-06 -3.5968450114e-06 -1.2366434053e-06 -1.9495651982e-06 -1.9873946841e-06
          -1.6948791861e-06 1.1027469895e-08 -1.5479398016e-06 -1.9173626269e-06 -7.6530811524e-07 3.9406011726e-06
          1.3384249219e-06 -6.9397816722e-07 1.41914271e-06 1.3853438344e-05 9.1041029507e-06 4.3285594623e-06
          7.8802144672e-06 3.108524552e-05 2.0926327347e-05 1.4363221754e-05 2.1125948298e-05 1.3080594511e-17
          2.6440786437e-17 1.7618090274e-05 2.6761336541e-05 -1.2420362374e-17 -2.5029281931e-05 -2.9148024626e-05
          -1.6140414179e-19 -1.1220163178e-16 -1.1220021583e-16 -6.2204826693e-18 -1.2410942379e-05 -1.9245619755e-05
          -4.2342683958e-17 -2.3020387824e-18 -4.5836842299e-06 -7.4773853278e-06 -1.3127837534e-17 -8.2360451538e-19
          -1.713158891e-06 -2.771511215e-06 -4.8416602131e-18 -2.3529636309e-19 -6.1763251708e-07 -1.0742201624e-06
          -1.6931271205e-18 3.7896133158e-19 5.7346052442e-07 -1.5757475842e-07 -4.6571491278e-20 1.967056852e-18
          3.8440920396e-06 1.7012526866e-06 3.2710924792e-18 6.3884323254e-18 1.2712249165e-05 7.0053512301e-06
          1.2968562351e-17 1.6261283956e-17 3.1448561655e-05 1.9395059992e-05 3.9562630545e-17 4.0949901715e-19
          6.0069915422e-17 2.9197843829e-05 9.9186423892e-17
        </DataArray>
        <DataArray type="Float64" Name="v" format="ascii" RangeMin="-0.078492638847" RangeMax="1.9524825415">
          9.192764512e-14 7.9416822908e-13 1.5286702856 2.6621442488e-12 1.3777758911 0.97053366649
          4.2026492645e-13 1.0025934019 2.1988615182e-12 9.0853142217e-13 1.8786603224 3.4287554331e-12
          1.6294474001 1.553582489 1.7718937782 9.2876620804e-13 1.9402844755 3.5701526806e-12
          1.6731475738 1.6623291151 1.9311142862 9.3099669803e-13 1.9431765064 3.5898821217e-12
          1.6767106413 1.6779826679 1.9524825415 9.3014914532e-13 1.9376408028 3.5883850862e-12
          1.6740906655 1.6770557309 1.9492587226 9.279317725e-13 1.9282923608 3.5838205879e-12
          1.6688520813 1.673520011 1.9425160382 9.203006661e-13 1.8994362101 3.5720501345e-12
          1.6511990098 1.66435406 1.9267982283 8.9028036098e-13 1.79252484 3.5253441302e-12
          1.5811516516 1.629089206 1.8704965633 7.6408583661e-13 1.4025693851 3.3345205986e-12
          1.300409325 1.4883731573 1.6615988081 3.5257746105e-14 2.8958611708e-13 2.5529119019e-12
          2.3059078901e-12 0.90052235169 0.90537944483 0.86619802095 1.2364869338 0.77732845247
          2.239778052e-13 0.53663019737 1.2765304632e-12 1.1403092176 1.5847292498 1.4742714057
          1.0556345603 1.1879711065 1.6474970641 1.6332327372 1.1810183024 1.1845771925
          1.6480821084 1.652344755 1.1924134479 1.175158185 1.6402010882 1.6464580284
          1.1840995839 1.1617803861 1.62796512 1.6372734161 1.1736104404 1.1269610822
          1.5932547607 1.6176486791 1.1529667832 1.019597624 1.4756535304 1.5535338549
          1.091479357 0.70965911059 1.0944715802 1.3387755644 0.90605337761 1.3927749862e-13
          1.1398227279e-12 0.67695853917 0.42070878551 0.3515669484 0.57398139292 0.34822464633
          8.8017196048e-14 0.21252524115 5.3152104046e-13 0.48319819213 0.76764898319 0.70485365931
          0.44076231622 0.50909062246 0.80190118455 0.79537794428 0.50400200012 0.50590509618
          0.79729325943 0.80193988168 0.50913820763 0.49821693279 0.78799580214 0.79348285963
          0.502435067 0.48688154036 0.77500028764 0.78319437438 0.49355240288 0.46099208389
          0.74365169459 0.76386591434 0.47700435755 0.39534935339 0.65635309907 0.71134128372
          0.43558835895 0.24803982331 0.43548038312 0.56969281053 0.33528403695 5.0663455308e-14
          3.3484307761e-13 0.24706913461 0.13567441304 0.10735930908 0.2070457179 0.12245849596
          2.5433570754e-14 0.062834189489 1.7712922413e-13 0.15563439588 0.28853007357 0.26071264579
          0.13925428266 0.16681587608 0.3054698856 0.30171363456 0.16427481765 0.16519886015
          0.30298505365 0.3052367722 0.16663609017 0.16059290937 0.29686522237 0.3001442444
          0.16295384036 0.1534210751 0.28759277615 0.29292057217 0.15737000687 0.13900501152
          0.26770999904 0.27972101538 0.14742841954 0.1091044177 0.22204377002 0.24936546254
          0.12648548165 0.057401680257 0.13116911451 0.1833057096 0.085943431684 9.1694668355e-15
          8.0700044866e-14 0.0682537289 0.026681256953 0.0050326748064 0.045856996106 0.025160762331
          -2.4790251485e-16 0.0010393733681 2.9365838354e-14 0.013164774481 0.069598422372 0.061028104076
          0.010301153584 0.015045777972 0.075172933362 0.073946952094 0.014845200627 0.013593904489
          0.073648272701 0.074817682108 0.014489771829 0.01103550667 0.070188562388 0.072033194286
          0.012323234328 0.0073472701635 0.064924244142 0.067863187874 0.0093082284574 0.0012126579785
          0.055172353855 0.06081168092 0.0046008034403 -0.0081863772441 0.037260326215 0.047395804428
          -0.0032025593228 -0.016169350472 0.011925148084 0.025013243692 -0.013171693527 -6.7790023425e-15
          -1.0474984301e-14 0.0015636705671 -0.013908252178 -0.035514927015 -0.019632835419 -0.013860828828
          -1.023827028e-14 -0.023169135781 -2.8881217255e-14 -0.045017840699 -0.02239461098 -0.02152569341
          -0.041582329181 -0.048217125129 -0.023618688971 -0.022929162731 -0.046906554352 -0.050022843244
          -0.025287720003 -0.024418737161 -0.049220224566 -0.051501048038 -0.027224286639 -0.026240574721
          -0.050817155015 -0.05301753889 -0.029667138339 -0.028369293447 -0.052285519642 -0.054503291924
          -0.03308065657 -0.031261797799 -0.053849748685 -0.054091391637 -0.036595266301 -0.035029082902
          -0.054839515651 -0.043977813761 -0.033521465236 -0.036757113209 -0.051226673536 -1.2742010412e-14
          -4.4294479238e-14 -0.023287400183 -0.028997298869 -0.050274229119 -0.044831835353 -0.028741114117
          -1.3836808061e-14 -0.031953306271 -5.087947463e-14 -0.066532100648 -0.05868633668 -0.053684070306
          -0.060615861804 -0.071896394673 -0.063303210716 -0.061546941309 -0.069907311976 -0.073905839158
          -0.065270377456 -0.064456005243 -0.073132884189 -0.074841902522 -0.066439429047 -0.065917234602
          -0.074475038082 -0.075244119643 -0.067292205571 -0.066913517334 -0.07513900287 -0.074591154245
          -0.067466784149 -0.067547659762 -0.075162505949 -0.070224701723 -0.06456850007 -0.066712814186
          -0.073216193745 -0.053558534462 -0.050268510415 -0.059804284306 -0.064428827867 -1.4792264105e-14
          -5.6651000421e-14 -0.032352399268 -0.034154941078 -0.05263933875 -0.052720929227 -0.033455205791
          -1.4456159431e-14 -0.033527268471 -5.7983207415e-14 -0.0695940134 -0.069966581742 -0.063702781393
          -0.063492976951 -0.075008032324 -0.075606392824 -0.073540112766 -0.073063454257 -0.076810364173
          -0.077577646677 -0.076836276698 -0.076169701272 -0.077420048598 -0.07833936969 -0.078056000186
          -0.077233115661 -0.077376309604 -0.078454853063 -0.078492638847 -0.077515171412 -0.076117575214
          -0.077348072902 -0.078155235555 -0.077012992854 -0.071072334424 -0.072316568809 -0.075650077996
          -0.074390823941 -0.05393585381 -0.054799212932 -0.066086705694 -0.064965957207 -1.4883818822e-14
          -6.0061548516e-14 -0.034798753398 -0.034327771167 -0.042621720264 -0.049756977977 -0.031971398962
          -1.1963812309e-14 -0.027924965584 -5.6579289641e-14 -0.054470731105 -0.064992970601 -0.059568142284
          -0.050368824771 -0.057989354727 -0.069707017753 -0.068023786163 -0.056798758658 -0.05908856708
          -0.071220734775 -0.070683303299 -0.058755914006 -0.059408937466 -0.071687124948 -0.071547093574
          -0.059369716177 -0.059300830949 -0.071574770147 -0.071724238731 -0.059474116685 -0.058405670328
          -0.070393788727 -0.071208706552 -0.059064406004 -0.055045626007 -0.065895801896 -0.068840136193
          -0.057276714864 -0.043246094062 -0.050541649888 -0.060461891179 -0.050899620823 -1.2408299548e-14
          -5.7140397241e-14 -0.032428100445 -0.028146038191 -1.2083125679e-14 -0.028091485765 -0.019098626033
          -1.06532489e-16 -4.0887253514e-14 -4.0874412574e-14 -1.5060931115e-14 -0.03484702343 -0.032542791273
          -5.7516784352e-14 -1.5862033901e-14 -0.036748191281 -0.036085939928 -6.1936062859e-14 -1.6100284633e-14
          -0.037327571965 -0.037129930067 -6.3245365907e-14 -1.6165933149e-14 -0.037490547435 -0.037450193658
          -6.3650594261e-14 -1.6140146353e-14 -0.037423970408 -0.037498650124 -6.3713579884e-14 -1.5949778916e-14
          -0.036931000443 -0.037271589029 -6.3426429107e-14 -1.5227436107e-14 -0.035073494028 -0.036298006443
          -6.2186985154e-14 -1.2477612443e-14 -0.028242900805 -0.032749245825 -5.7659532718e-14 -4.3379618766e-16
          -4.0217637078e-14 -0.019125672145 -4.026211217e-14
        </DataArray>
        <DataArray type="Float64" Name="p" format="ascii" RangeMin="-0.067665329138" RangeMax="0.32277495622">
          0.090224164736 0.28437854511 -0.036735129031 0.18730135492 0.12382170804 0.026744517852
          -0.015077769938 -0.025906449485 0.037573197399 0.31681785081 -0.041404121645 0.30059819796
          0.13770686458 0.12148721173 -0.039069625338 0.32237805913 -0.040568803433 0.31959795497
          0.14090462785 0.13812452369 -0.040986462539 0.32277495622 -0.041243600254 0.32257650767
          0.14076567798 0.14056722944 -0.040906201844 0.32237728829 -0.041681901469 0.32257612226
          0.14034769341 0.14054652737 -0.041462750862 0.32163531698 -0.042226081079 0.32200630264
          0.13970461795 0.14007560361 -0.041953991274 0.31874563202 -0.043407271873 0.3201904745
          0.13766918007 0.13911402255 -0.042816676476 0.30869721611 -0.047665082787 0.31372142406
          0.13051606666 0.13554027462 -0.04553617733 0.2451129563 -0.055599067299 0.2769050862
          0.094756944499 0.1265490744 -0.051632075043 0.024423985647 -0.030233579636 0.13476847097
          -0.0029047969944 0.10743968833 -0.042916323467 -0.054282648616 -0.045508888824 -0.034680209277
          -0.0062641253243 -0.03027338697 -0.010670947631 -0.065266328162 -0.053335224903 -0.051000728596
          -0.059774488389 -0.066901548383 -0.053735175908 -0.054152835014 -0.066083938272 -0.067549742859
          -0.054396671557 -0.054059273146 -0.067225645621 -0.067586216271 -0.05463405887 -0.054414908263
          -0.067567979565 -0.067665329138 -0.054945705109 -0.054673615303 -0.067625772705 -0.067503871653
          -0.055455571763 -0.054864976366 -0.067584600395 -0.065593607561 -0.056629345174 -0.054500439717
          -0.066548739607 -0.052146227387 -0.053872647343 -0.049905655087 -0.058869917474 -0.0041334204613
          -0.017183500049 -0.02986624388 -0.028139823924 -0.027436759646 -0.040859704131 -0.016850442485
          -0.0038641563371 -0.015650457991 -0.0050641408307 -0.032877595655 -0.049071961908 -0.043580122136
          -0.030157177651 -0.033535222751 -0.050218385567 -0.049400775456 -0.033206409203 -0.03313436128
          -0.05034205207 -0.050017954831 -0.033334792016 -0.03278615282 -0.050186184546 -0.05016794784
          -0.03296025705 -0.032529927695 -0.050097628416 -0.050058071983 -0.032658040258 -0.031730641945
          -0.049617256799 -0.049697985542 -0.03213028482 -0.028735836226 -0.047164721893 -0.048119853939
          -0.030233239086 -0.018930372931 -0.035538300159 -0.042261990246 -0.023833104578 0.0014077292763
          -0.0013628455925 -0.025369249055 -0.0087613218273 -0.011558363787 -0.019497561716 -0.0077112600619
          -0.001532897983 -0.0065456308849 -0.00269852716 -0.014773050613 -0.023825323134 -0.02110490513
          -0.0131657072 -0.015463154573 -0.024499188662 -0.024170375114 -0.015118102593 -0.015347823293
          -0.024241092287 -0.024441523022 -0.015405488933 -0.015193902215 -0.023990027518 -0.024164131748
          -0.015270862754 -0.014932530561 -0.023731229128 -0.023859341691 -0.015063216388 -0.014221498039
          -0.022976069992 -0.023375712867 -0.0145770143 -0.012255696365 -0.020495766296 -0.021993169155
          -0.013238597202 -0.0076210437486 -0.01327570834 -0.018178439987 -0.0099383700571 -5.6306615583e-05
          0.00067571133034 -0.0094933397733 -0.0038386751821 -0.0046774016067 -0.0081178826967 -0.0031051497948
          -0.00060133963488 -0.0026393706208 -0.0010671188089 -0.0061518403495 -0.010462445481 -0.0088551020681
          -0.0054146209781 -0.0065029099968 -0.010983032285 -0.010637980305 -0.0063273751731 -0.0064673017149
          -0.010907562504 -0.010965228144 -0.0064851058558 -0.0063600477789 -0.010776974997 -0.010853935536
          -0.0064136747469 -0.0061592099055 -0.010545870233 -0.01067655606 -0.0062596288422 -0.0057161026087
          -0.0099688003237 -0.010324316585 -0.0059376562571 -0.0047154172624 -0.0084855568139 -0.0094684576505
          -0.0052157599356 -0.0027716823137 -0.0051963630312 -0.0075136893396 -0.003743549788 0.00023840774288
          9.1050563647e-05 -0.0036913180029 -0.0012666372854 -0.0017902597852 -0.0032338306959 -0.00119579971
          -0.00023292415285 -0.001011591969 -0.00041713189387 -0.0024137434692 -0.0042827919093 -0.003545572538
          -0.0021020016272 -0.0026111797075 -0.0045570448521 -0.0043815100285 -0.0025124615883 -0.0026217945879
          -0.0045445481514 -0.0045623522923 -0.0026164871477 -0.0025701599168 -0.0044651038478 -0.0045187308158
          -0.0025959772523 -0.0024612022783 -0.0043102060919 -0.0044106250286 -0.0025156810975 -0.0022381655275
          -0.0039771340681 -0.0041986877165 -0.0023496839029 -0.0017974138608 -0.0032564155616 -0.0037567582348
          -0.0020177896942 -0.0010299117211 -0.0019007970174 -0.0028726644918 -0.001413662791 3.5472430104e-05
          0.00013694008649 -0.0013681049418 -0.00049721964552 -0.00058173667484 -0.00118599823 -0.00040733041384
          -9.5947454541e-05 -0.00033884206469 -0.0001644358037 -0.00076474213794 -0.0015892428036 -0.0012775009616
          -0.00067323940639 -0.00081788998575 -0.0017145348466 -0.0016158167275 -0.00079131606184 -0.00080870646706
          -0.0017152505275 -0.0017099430873 -0.00081329822641 -0.00077831284603 -0.0016742363814 -0.0017000537169
          -0.00079350965654 -0.00072696890787 -0.0015940855931 -0.0016485644123 -0.00075264087695 -0.00063521917802
          -0.0014366923528 -0.0015482107282 -0.00068109404295 -0.00048525019765 -0.0011413320292 -0.0013617078626
          -0.00056023468783 -0.00026495068641 -0.00064743120378 -0.0010311822736 -0.00037510044203 3.9771691021e-05
          3.7622060562e-05 -0.00049507001506 -0.00011258949769 0.00012177020318 -0.00022998323583 1.2911374319e-05
          -6.763576577e-05 2.7067218705e-05 -8.1791610155e-05 0.00027872796395 -0.00024300708699 -0.00015150435544
          0.00020024908356 0.00035297734135 -0.0002324563222 -0.0002058823983 0.00031585265265 0.00038829154866
          -0.0002102074592 -0.00021479921855 0.000370634445 0.00040930063068 -0.00018450610767 -0.00019970291819
          0.00039879608967 0.0004256558121 -0.00015065654789 -0.00017632851696 0.00041747822139 0.000437657826
          -9.8780676011e-05 -0.00014465554094 0.00043165681905 0.00040039915423 -4.2425521707e-05 -0.00011741001189
          0.00041902849012 0.0003014694276 1.8259370595e-05 -9.1890385025e-05 0.00035093429091 6.5094289388e-05
          5.2432990204e-05 -9.9928198509e-05 0.00018328185849 0.0012289620882 0.00067536614569 0.00058066316122
          -6.7551718413e-05 0.00058070518489 -6.7593742091e-05 0.0018859485073 0.0010823382356 0.0010038593553
          0.0015574552978 0.0020847688917 0.0012188731165 0.0011817484278 0.0019853586995 0.0021498333928
          0.0012690624707 0.0012514053671 0.0021173011423 0.0021713238416 0.0012903122361 0.0012798076951
          0.0021605786172 0.0021693669207 0.0012975113664 0.0012893337757 0.0021703453811 0.0021270965317
          0.0012823771788 0.0012763761719 0.0021482317262 0.001953982042 0.0011771905981 0.001195819934
          0.0020405392868 0.0015095089252 0.00090548917641 0.00095495403972 0.0017317454836 0.00011260880023
          8.8851544808e-05 0.00020703911391 0.00081105886272 0.0048770807173 0.0030530214027 0.0024047644994
          0.0003993513942 0.0026382160557 0.00016589983789 0.0059772255441 0.0039315870257 0.0036030938162
          0.0054271531307 0.0062096094197 0.0041471891557 0.0040477789635 0.0060934174819 0.0062941229485
          0.0042219781707 0.0041894459201 0.0062518661841 0.0063156003438 0.0042434620927 0.0042327168683
          0.0063048616461 0.0063070203723 0.0042381936465 0.004239172107 0.0063113103581 0.0062408332879
          0.0041839649098 0.0042051001043 0.0062739268301 0.0059970124707 0.0039754972564 0.0040620545012
          0.0061189228793 0.0050989232126 0.0033042160689 0.0035264526273 0.0055479678417 0.0013430536261
          0.00072783121319 0.0014262812757 0.0032209884194
        </DataArray>
        <DataArray type="Float64" Name="T" format="ascii" RangeMin="0.0014768547107" RangeMax="101">
          100 100.5 42.36499977 100.25 71.432499885 71.182499885
          30.168544346 36.266772058 65.084272173 100.5 42.729147604 100.5
          71.614573802 71.614573802 42.547073687 100.5 42.273036023 100.5
          71.386518012 71.386518012 42.501091813 100.5 42.002984686 100.5
          71.251492343 71.251492343 42.138010355 100.5 41.912873419 100.5
          71.20643671 71.20643671 41.957929053 100.5 41.927735643 100.5
          71.213867822 71.213867822 41.920304531 100.5 41.968742665 100.5
          71.234371333 71.234371333 41.948239154 100.5 41.645464898 100.5
          71.072732449 71.072732449 41.807103782 100.5 38.853752921 100.5
          69.67687646 69.67687646 40.249608909 101 25.593873523 100.75
          63.296936762 63.046936762 32.223813222 12.793682017 27.579340894 21.481113182
          10.350648618 11.572165318 20.259596482 11.064683893 26.896915748 26.714841832
          11.929182955 9.7705865716 26.021811297 26.249867088 10.417635232 9.2188872374
          25.610935962 25.74596163 9.4947369045 9.0412310968 25.477052258 25.522107891
          9.1300591671 8.9964634071 25.462099525 25.454668413 9.018847252 8.9387551674
          25.453748916 25.433245405 8.9676092873 8.604920232 25.125192565 25.286831449
          8.7718376997 7.1601392926 23.006946107 24.402802095 7.8825297623 2.4359004363
          14.01488698 20.644826678 4.7980198645 3.9503033572 8.3719926872 7.1504759877
          3.726290052 3.8382967046 7.0384693351 3.1970157886 7.1308498409 7.9953489029
          3.5736595729 2.6889227537 6.2297546627 6.8768033234 2.9429692712 2.4800161512
          5.8494516943 6.1253013614 2.5844694524 2.4119649377 5.7265980173 5.8154260876
          2.4459905444 2.3865266236 5.6914950153 5.7138788602 2.3992457807 2.3410793316
          5.6399172495 5.6687713694 2.3638029776 2.1815771218 5.3932486769 5.5601661446
          2.2613282267 1.7133744067 4.4367568497 5.1591473194 1.9474757642 0.73653733478
          1.5862188855 3.9483383137 1.2249558707 1.2838209565 2.6170621568 2.5050555043
          1.3403482223 1.3120845894 2.5333191372 1.0369424343 2.1169791115 2.4936228958
          1.1603816954 0.86852503784 1.7787238958 2.0327704132 0.95273373608 0.79293162206
          1.6364738866 1.7409271879 0.83072832995 0.76404878397 1.5880068609 1.6220324676
          0.77849020301 0.74865999524 1.5675933094 1.5803124665 0.7563543896 0.72262013153
          1.5318497316 1.5545733775 0.73564006339 0.65580429595 1.4186907089 1.4984418138
          0.68921221374 0.50989191553 1.1116331611 1.3457345186 0.58284810574 0.30078045753
          0.51865889616 1.0070774321 0.40533618653 0.43084109136 0.85733102392 0.88559465685
          0.47715130141 0.45399619638 0.90874976187 0.35370672181 0.69532457807 0.81876383915
          0.39227390659 0.29910311272 0.58381407528 0.66802277352 0.32640491726 0.27168289898
          0.53230726052 0.57010396841 0.28539300585 0.25927023313 0.51165950855 0.5261009276
          0.26547656606 0.25109833544 0.49987916534 0.50757355971 0.25518428429 0.23850105841
          0.48056059497 0.49358052683 0.24479969693 0.21264018967 0.43422224281 0.4676301606
          0.22557062404 0.16775280228 0.33882235891 0.41177854912 0.19019649598 0.1193839347
          0.21008219612 0.31463792512 0.14356836849 0.14728413502 0.28906261319 0.31221771821
          0.16837180073 0.15782796788 0.32276155107 0.12309937094 0.23840304638 0.27697023115
          0.13519175298 0.10540338452 0.20225324862 0.22955505316 0.11425137773 0.095546456852
          0.18361467792 0.19732478478 0.10047492068 0.090372639913 0.17482143652 0.18102776945
          0.092959548383 0.086489100246 0.16879371784 0.17287966669 0.088430870079 0.080990458674
          0.15974575854 0.16604439706 0.08373977946 0.071479698574 0.14205994412 0.15499037849
          0.076235078624 0.057679955472 0.11271637888 0.13516007257 0.064579827023 0.045497078257
          0.082440506479 0.10662494027 0.051588516864 0.050944316315 0.099114225669 0.10965805852
          0.059136539408 0.055040427862 0.11375417007 0.043236467847 0.083167919394 0.095260301435
          0.047090392081 0.037459380933 0.071431382725 0.080279375938 0.04034792439 0.033942693111
          0.064744574982 0.069673038814 0.035701037022 0.03185404485 0.061113342382 0.063700250851
          0.032898368981 0.030147590245 0.058318345245 0.060260115079 0.031000817548 0.027902973384
          0.054446716029 0.057196036815 0.029025281814 0.024514895188 0.047997296881 0.052752676931
          0.026208934286 0.020234640497 0.038957297985 0.045857169536 0.022374767843 0.016894788948
          0.031195933602 0.03728737221 0.018564714723 0.017929537597 0.034436926956 0.038533038503
          0.020899996987 0.019414767292 0.040018268198 0.015413662926 0.029325065386 0.03317898962
          0.016671600261 0.013489353196 0.025474367065 0.028362910521 0.014451508061 0.012224851375
          0.023083772243 0.024842116154 0.012857102286 0.011392826963 0.021623435907 0.022667760037
          0.011808839169 0.010674674965 0.020411132605 0.021264359908 0.011033750964 0.0097899492038
          0.018846461294 0.019968769724 0.010232312084 0.0085954263295 0.016555160759 0.018249199857
          0.0091926877667 0.0072381784113 0.013736409454 0.0158765368 0.0079168023704 0.006244453368
          0.011569621158 0.013239546933 0.0067413158897 0.0069364373698 0.012432987483 0.013918217178