<?xml version="1.0"?>
<VTKFile type="UnstructuredGrid" version="0.1" byte_order="LittleEndian" compressor="vtkZLibDataCompressor">
  <UnstructuredGrid>
    <Piece NumberOfPoints="441" NumberOfCells="200">
      <PointData>
        <DataArray type="Float64" Name="u" format="ascii" RangeMin="-0.0016186009507" RangeMax="0.001711923559">
          -1.1893316617e-17 -1.010639438e-15 -0.00056280731869 -6.9515322643e-15 -0.0016186009507 -0.0014054308828
          -1.1448211664e-16 -0.00030055076396 -1.8507444656e-15 -3.114520915e-16 -5.1320990026e-05 -2.3016399038e-15
          -0.00046766649533 -0.00078691464605 -0.00016726569381 -4.305891631e-17 0.00011179001225 -4.4973862871e-16
          -3.5394354486e-05 -0.00014642087696 8.183703468e-05 2.030523509e-17 0.00011156583212 4.640356967e-17
          5.7086363717e-05 4.3961644542e-05 0.00013053167862 2.70526793e-17 6.9734552881e-05 1.0749147292e-16
          5.6308302621e-05 6.1066836721e-05 9.149468253e-05 3.8471769675e-17 4.8459175369e-05 1.094005274e-16
          6.6673898295e-05 5.5954637099e-05 5.6527643384e-05 9.9410682293e-17 7.4197256111e-05 2.4040276685e-16
          0.00015936084499 9.9257048851e-05 5.7223141512e-05 2.6547671441e-16 0.00014220924541 7.5937970829e-16
          0.00041293377807 0.00027199167358 0.00011942979799 5.4335189207e-16 0.00014132401721 2.9898693134e-15
          0.00082891815438 0.00076619881237 0.0001989325321 1.6684721117e-18 -1.3066173794e-17 7.2017172103e-15
          7.1977480705e-15 0.0011984246394 1.2529133735e-05 0.0014884484202 0.00064576124811 0.00067220727657
          6.7654161363e-16 0.0013677700055 2.1936806222e-15 0.00084433701611 0.00045473873414 0.00062239551552
          0.0012243211625 0.00034952898676 0.00025362984968 0.00035466206818 0.00056315475456 0.00012638963359
          0.00013359257872 0.00019220219108 0.00022093407347 9.2672997294e-06 4.9751912979e-05 8.6837219891e-05
          6.0530486315e-05 -0.00010305590192 -2.043368648e-05 1.6221472451e-05 -4.0470120936e-05 -0.00032743180589
          -0.00013448293003 -6.2069574498e-05 -0.00019074397637 -0.00083565068093 -0.00042250435612 -0.00022114233913
          -0.00053059621823 -0.0014957520575 -0.00088665334167 -0.00059754130167 -0.0012031199108 -6.8138399634e-16
          -1.3485652878e-15 -0.00085033103118 -0.0013942849611 0.0015696935498 0.001711923559 0.0014506393608
          6.1132483114e-16 0.0012849368435 2.7058193036e-15 0.00094587878561 0.00099807030061 0.001386256213
          0.001292177011 0.00034722048644 0.000378878817 0.00062615192325 0.00058774998743 6.828766498e-05
          0.00010244074772 0.00020865555286 0.0001734180404 -6.946878791e-05 -3.3947305344e-05 2.4448989412e-05
          -9.9453823274e-06 -0.00022532060856 -0.00017796860078 -9.5643606989e-05 -0.00013660725573 -0.00053615194954
          -0.00047203335672 -0.00029363735069 -0.00035367842682 -0.0010779981346 -0.0010450989564 -0.00071361662305
          -0.00078152719973 -0.0014632988405 -0.0015862406803 -0.0013941789303 -0.0013611970756 -5.4316178046e-16
          -3.0947516029e-15 -0.0013717160824 -0.0011567503693 0.0010213365682 0.0013200529743 0.0010461259805
          3.6906564811e-16 0.00079237266477 1.769670075e-15 0.00068929111313 0.00083204882089 0.0011119519671
          0.00089711277402 0.00027089396935 0.00030943779033 0.00052698618655 0.00045197056202 4.0298792435e-05
          4.8258852707e-05 0.00015164421608 0.00013464025368 -8.9511039001e-05 -8.7932964203e-05 -2.520887628e-05
          -2.8548482373e-05 -0.00023702748235 -0.00024408884113 -0.00015428432631 -0.00015388044806 -0.0004871620237
          -0.00053307417106 -0.00036594402463 -0.00034589964048 -0.00082705214027 -0.00097493961357 -0.00074341524414
          -0.00065440575947 -0.00093014843223 -0.0011928774059 -0.0011765703291 -0.00095108991784 -2.9830522929e-16
          -1.8554166433e-15 -0.00090320442544 -0.00065953759055 0.00056367437482 0.00078026278224 0.00059115359803
          1.9283611341e-16 0.00042087540766 9.5968301754e-16 0.00042268981009 0.0005515395125 0.00069964714072
          0.00052297268799 0.00018456004404 0.00022789403669 0.0003708994692 0.00029242000305 2.7557675928e-05
          3.3620738214e-05 0.00011473660505 9.4269782418e-05 -7.4321471744e-05 -8.4019838288e-05 -2.8533118076e-05
          -2.6319865147e-05 -0.00018378287369 -0.0002141207026 -0.0001423017375 -0.00012458398847 -0.00033925687314
          -0.00041531705929 -0.00030457285516 -0.00025519753848 -0.00050807083853 -0.00065871034691 -0.00054132644077
          -0.00042870480432 -0.00051034209871 -0.00069866288188 -0.00073692233209 -0.00054956495808 -1.5392696326e-16
          -9.0134524818e-16 -0.00048495411798 -0.00034591820197 0.00027901268776 0.00040785315936 0.00029896613358
          9.1563152145e-17 0.00020249606895 4.7215687287e-16 0.00022615358202 0.00031576446405 0.00038322072861
          0.00026930879673 0.0001071774683 0.00014327603994 0.00022312675492 0.0001636070865 1.5682616127e-05
          2.1101581358e-05 7.4343240722e-05 5.6245354079e-05 -5.0489061281e-05 -6.2658226439e-05 -2.287768008e-05
          -1.9015951123e-05 -0.00011743462138 -0.00014989279003 -0.00010349808164 -8.2336242963e-05 -0.00019868223826
          -0.00026424824459 -0.00020397777974 -0.00015647823433 -0.00027102793009 -0.00037696062115 -0.00032671855488
          -0.00023956630175 -0.00025073500044 -0.00036306258786 -0.00039999510138 -0.00028071966463 -7.1990990809e-17
          -4.455124226e-16 -0.0002435699281 -0.00016382313395 0.00011470131426 0.00018841968536 0.00013494984515
          3.6599740578e-17 8.1793731844e-05 2.0691253312e-16 9.777666837e-05 0.00015547566663 0.00018272568864
          0.00011340925681 4.8172121595e-05 7.5249548062e-05 0.00011387123121 7.2483248764e-05 4.4895727646e-06
          9.838670539e-06 3.9313945857e-05 2.4390874386e-05 -2.9987299525e-05 -3.943226277e-05 -1.5976360187e-05
          -1.3593444571e-05 -6.2900211781e-05 -8.7873519976e-05 -6.297718061e-05 -4.6264205106e-05 -9.6550376224e-05
          -0.00014236340457 -0.00011492315755 -8.0041623492e-05 -0.000119013221 -0.00018584828916 -0.00016835231708
          -0.00011080812479 -0.00010093330373 -0.00016611349465 -0.000189459975 -0.00011774346828 -2.7865031727e-17
          -1.9183261931e-16 -0.00010762008889 -6.379054269e-05 1.4326823945e-05 6.0373044541e-05 4.2018946795e-05
          3.5535682799e-18 8.7805610117e-06 5.4550059994e-17 1.5584340363e-05 5.2404434224e-05 5.9512208199e-05
          1.5749593979e-05 7.4670138042e-06 2.5539371975e-05 3.8854916586e-05 1.1957426313e-05 -4.4177640169e-06
          -4.9358452697e-07 1.1607718243e-05 1.3763892897e-06 -1.6050500855e-05 -2.2246905517e-05 -1.1869971013e-05
          -1.0459947865e-05 -2.6048854906e-05 -4.222459011e-05 -3.2440394041e-05 -2.1413617809e-05 -3.1012020965e-05
          -5.9531070269e-05 -5.1771273689e-05 -2.9647180484e-05 -2.4770449539e-05 -6.6075487947e-05 -6.534843526e-05
          -2.9964070489e-05 -6.5702655496e-06 -4.9012854764e-05 -6.1873471829e-05 -1.7250912692e-05 2.8669652819e-19
          -5.6587138612e-17 -2.9468755875e-05 -1.7337314963e-07 -4.5781087163e-05 -2.0472705767e-05 -1.9130195884e-05
          -1.9096062669e-17 -3.9828605502e-05 -5.9830526568e-17 -2.6439074721e-05 -1.0803393529e-05 -1.7459990227e-05
          -3.7887092362e-05 -1.1811803126e-05 -5.2894496254e-06 -7.2878741318e-06 -1.7733550966e-05 -7.5166233577e-06
          -7.0058629037e-06 -5.7256542422e-06 -8.9530144503e-06 -7.2287605143e-06 -1.1160331341e-05 -9.0963426079e-06
          -7.2562248146e-06 -5.9678027396e-06 -1.3927420205e-05 -1.3058265882e-05 -7.0325381033e-06 1.910412562e-06
          -1.0235684207e-05 -1.3521942497e-05 -3.3005846476e-06 2.3001056488e-05 5.8745192813e-06 -4.4476736338e-06
          1.036657274e-05 5.3070470479e-05 2.9534244005e-05 1.7094604984e-05 3.7497281203e-05 2.1475125267e-17
          3.9461625594e-17 2.6332824583e-05 4.5264004704e-05 -2.1565699168e-17 -4.3451142726e-05 -4.5265955613e-05
          -8.8494662052e-20 -1.5918407356e-16 -1.5918126475e-16 -1.2085159728e-17 -2.4255686368e-05 -3.5492938542e-05
          -7.9406071659e-17 -5.249400766e-18 -1.0546816902e-05 -1.5846071469e-05 -2.9825127567e-17 -2.4840336655e-18
          -5.4364102186e-06 -7.2921876432e-06 -1.3268495316e-17 -1.3627547245e-18 -3.7058201833e-06 -4.4239291636e-06
          -7.0570529188e-18 -3.5732852469e-20 -1.4144774221e-06 -2.9187605028e-06 -3.6495628968e-18 3.4833360715e-18
          5.743589653e-06 1.0514974791e-06 3.9801632733e-18 1.2114475881e-17 2.3714853417e-05 1.2484936077e-05
          2.5338722013e-17 2.6684391719e-17 5.2778522043e-05 3.5961702861e-05 7.5107986836e-17 2.8160457168e-19
          1.0057170814e-16 4.750210657e-05 1.5083806523e-16
        </DataArray>
        <DataArray type="Float64" Name="v" format="ascii" RangeMin="-0.12264675591" RangeMax="3.6086893985">
          6.2199775754e-14 1.0472645367e-12 2.6712736558 3.3815520409e-12 2.1150676794 1.4081847747
          6.6156645097e-13 1.6639899839 2.9482148487e-12 1.2736023475e-12 3.4446812047 4.8243612137e-12
          2.6438702349 2.4674670046 3.1762413465 1.3237606002e-12 3.6010095329 5.1693155858e-12
          2.755324098 2.7232505852 3.5571642413 1.3290019299e-12 3.6006545345 5.2220097712e-12
          2.761960803 2.7636826443 3.6086893985 1.3253911673e-12 3.576682127 5.2122849806e-12
          2.7506397927 2.7570401504 3.5906458097 1.3189188032e-12 3.5467831789 5.1953688622e-12
          2.7345686506 2.744156434 3.5653396477 1.3006980405e-12 3.4730522769 5.1636979479e-12
          2.6907323986 2.7196827886 3.5216765829 1.2365255105e-12 3.2268529828 5.0510185013e-12
          2.5324545592 2.6364545269 3.3858580495 1.0100900993e-12 2.4325544844 4.6301972737e-12
          1.9810119403 2.3374264455 2.9322828165 2.5459728402e-14 5.3459169196e-13 3.1678736352e-12
          2.9681119972e-12 1.3028861797 1.5110657597 1.8636456013 2.3885141132 1.4474356504
          4.4558088598e-13 1.1162810252 2.3170473914e-12 2.5118417339 3.1786472171 2.9120431577
          2.2990088802 2.6195077717 3.3293614443 3.2934299075 2.6061375379 2.5884932613
          3.314981638 3.3305116933 2.6170145369 2.5453067045 3.2795615248 3.298829859
          2.5740865646 2.4978726702 3.2381635293 3.2626832577 2.5313433519 2.3985690098
          3.1444797858 3.2046541763 2.4668970318 2.1268890574 2.8621079624 3.0421437539
          2.302600919 1.4238679701 2.0461776225 2.5541340313 1.8579529602 2.5104063804e-13
          2.0391745904e-12 1.2280099045 0.81817612287 0.92828937192 1.3567117324 0.80332842579
          2.2045097313e-13 0.54925517961 1.2164257129e-12 1.2847635848 1.8506314179 1.6858313497
          1.1670160171 1.3461809739 1.9296919369 1.9194450319 1.3386128951 1.3222704332
          1.8973105829 1.9196543179 1.339382874 1.28807415 1.8553270395 1.8774716267
          1.3061260134 1.2466756592 1.8082928984 1.8354360113 1.2701782638 1.1662457268
          1.7147902487 1.7728062467 1.2149907251 0.9820390502 1.4822161788 1.625481074
          1.0932050328 0.60119175257 0.9483587757 1.2660807018 0.82324445047 1.1778967369e-13
          6.9280756461e-13 0.5239056978 0.32481885842 0.38494016356 0.61682099284 0.36142768766
          9.0763606408e-14 0.22564487566 5.3347257519e-13 0.54727496133 0.86123666163 0.77752562267
          0.49186647633 0.58009048824 0.90543310917 0.89848141812 0.57439847179 0.56864285141
          0.8878755403 0.89987563673 0.57677874383 0.54805110515 0.86077669395 0.87480477146
          0.55869239266 0.52033873567 0.8261553135 0.8454327291 0.53553553208 0.47069212087
          0.76137502321 0.79974654094 0.49949482017 0.37459535891 0.6250487953 0.70545981374
          0.43015220159 0.21141259191 0.3693563017 0.51461473195 0.30206916969 3.9423200217e-14
          2.5033988612e-13 0.19487763842 0.10840444503 0.11690960502 0.22832885503 0.1320545802
          2.7176893966e-14 0.067321740806 1.8860717902e-13 0.17205485471 0.32748596 0.29235741627
          0.1529327941 0.18338238153 0.34785188466 0.34413072315 0.18174985189 0.17685016973
          0.3393158262 0.34526472812 0.18119819182 0.16521405862 0.32372991389 0.3319526986
          0.17127601811 0.14950820299 0.30248159211 0.31416591262 0.15796656434 0.12479393237
          0.26652838235 0.28710678104 0.13858305981 0.085706163991 0.20294132423 0.23893604044
          0.10716764851 0.035645836732 0.10626866721 0.15837518991 0.061172790589 3.9242728993e-15
          5.7475132808e-14 0.051455255017 0.013351003245 -0.0061795825123 0.044059720936 0.024140871032
          -1.7737293901e-15 -0.0048569332612 2.8406307523e-14 -0.0052324309188 0.06674081506 0.058756670867
          -0.0049341639078 -0.0081805553386 0.069647192757 0.070085585293 -0.006025630295 -0.013903921233
          0.063623422842 0.067218068933 -0.010869004784 -0.020524422337 0.054849232416 0.059425966054
          -0.017210329453 -0.028068548726 0.043730005641 0.049674960587 -0.024203775825 -0.037109644724
          0.027977980177 0.03655806463 -0.032479417202 -0.045404196184 0.006935120588 0.017931921621
          -0.041774415477 -0.041996864116 -0.01120162145 -0.0035816972913 -0.046418284605 -1.1748614687e-14
          -2.8560742205e-14 -0.011731438251 -0.028285417067 -0.058277809742 -0.037847333603 -0.023531735772
          -1.3986144044e-14 -0.035329544216 -4.1876217462e-14 -0.08156902542 -0.051984576323 -0.046276721326
          -0.07229995285 -0.09186092942 -0.059553401966 -0.056075833483 -0.087543734378 -0.097597707871
          -0.06537964323 -0.062590696024 -0.095069396145 -0.10154525096 -0.070479167502 -0.068000540359
          -0.099759756835 -0.10444463312 -0.07532093172 -0.072934197849 -0.10317806567 -0.10532409218
          -0.079494663845 -0.077617407572 -0.1053410225 -0.099400485413 -0.079104901783 -0.080368957435
          -0.10378846334 -0.073518573404 -0.06173365537 -0.07381988236 -0.090286137338 -1.8152890089e-14
          -6.5750096397e-14 -0.038811128818 -0.045150498416 -0.073351390337 -0.069242802122 -0.041902318225
          -1.7706741046e-14 -0.044453048861 -6.9162828753e-14 -0.1028364675 -0.097580985779 -0.086535024536
          -0.091407737824 -0.11452171973 -0.1093249581 -0.10463043624 -0.10995110205 -0.11954186314
          -0.11487673245 -0.11255124277 -0.11753337907 -0.12192873772 -0.11797114692 -0.11663808324
          -0.12098831382 -0.12264675591 -0.11953521883 -0.11897180452 -0.12254907878 -0.12046436846
          -0.1183644692 -0.1194885022 -0.12212884418 -0.11045209188 -0.10937367064 -0.11541371222
          -0.11698393154 -0.079687291379 -0.079249027338 -0.09826730065 -0.098930675449 -1.9459364399e-14
          -7.8871444093e-14 -0.048213261634 -0.048439423274 -0.059719084842 -0.070378502061 -0.043072714729
          -1.4976846966e-14 -0.037154740145 -7.2063971728e-14 -0.080896025729 -0.09758510446 -0.087192843829
          -0.072887668699 -0.088694279958 -0.1079830545 -0.10397979145 -0.085734880014 -0.091733135552
          -0.11218995557 -0.11053655419 -0.090578624582 -0.092926302849 -0.11396688237 -0.11329030393
          -0.092513102544 -0.092950452384 -0.1141996643 -0.11430302935 -0.093124616608 -0.090997414618
          -0.111797741 -0.11349812979 -0.092359282374 -0.083823742075 -0.10242893112 -0.10846362891
          -0.08841437782 -0.062196543848 -0.074395070786 -0.091940220679 -0.075713598382 -1.5760515577e-14
          -7.5782435688e-14 -0.045559103375 -0.038609575092 -1.5434358619e-14 -0.037793947979 -0.024387481035
          -3.2238561208e-17 -4.8156197167e-14 -4.8102091071e-14 -2.0120730868e-14 -0.049796867477 -0.045354659462
          -7.5682337725e-14 -2.175382351e-14 -0.054037747417 -0.052434434633 -8.4914135497e-14 -2.2368119156e-14
          -0.055649522826 -0.055031208581 -8.8302925082e-14 -2.2593839318e-14 -0.056256759326 -0.056040764159
          -8.9631108949e-14 -2.2576668246e-14 -0.056228950426 -0.056333530545 -9.0027458373e-14 -2.2156640326e-14
          -0.055128041339 -0.055881833021 -8.9457107139e-14 -2.0663895189e-14 -0.051167102162 -0.05370943229
          -8.6648724986e-14 -1.5977294276e-14 -0.038920687342 -0.046693223968 -7.7511869488e-14 -1.7485014347e-16
          -4.9111894654e-14 -0.025088991188 -4.9184216593e-14
        </DataArray>
        <DataArray type="Float64" Name="p" format="ascii" RangeMin="-0.12213604964" RangeMax="0.51751532649">
          0.11911235877 0.42571151932 -0.0087849136688 0.27241193905 0.20846330283 0.055163722553
          -0.010844710103 -0.0098148118859 0.054133824336 0.50148073751 -0.0057785176151 0.46359612842
          0.24785110995 0.20996650085 -0.0072817156419 0.51683779907 -0.0063453243795 0.50915926829
          0.25524623735 0.24756770657 -0.0060619209973 0.51751532649 -0.0091101398189 0.51717656278
          0.25420259333 0.25386382963 -0.0077277320992 0.51587741699 -0.011128173696 0.51669637174
          0.25237462165 0.2531935764 -0.010119156757 0.51370253897 -0.013080770285 0.51478997798
          0.25031088434 0.25139832335 -0.012104471991 0.50703276166 -0.016725688468 0.51036765032
          0.2451535366 0.24848842525 -0.014903229377 0.48274500996 -0.027412917862 0.49488888581
          0.22766604605 0.2398099219 -0.022069303165 0.36352281522 -0.046255524913 0.42313391259
          0.15863364515 0.21824474253 -0.036834221387 0.02649310599 -0.033562336312 0.1950079606
          -0.0035346151607 0.16498023945 -0.039908930612 -0.08717634617 -0.04798062992 -0.049010528137
          -0.008228376854 -0.047702361512 -0.0095365434785 -0.11367096786 -0.059724742739 -0.061227940766
          -0.10042365702 -0.11937710394 -0.062861214158 -0.062577810776 -0.1165240359 -0.12106142794
          -0.065085783877 -0.063703376158 -0.12021926594 -0.12146381485 -0.066295994275 -0.065286977337
          -0.1212626214 -0.12191612663 -0.067498448456 -0.066522150161 -0.12168997074 -0.12213604964
          -0.069430869055 -0.067608409964 -0.12202608813 -0.11909037608 -0.07325164697 -0.067908032273
          -0.12061321286 -0.094947329898 -0.070601427405 -0.06118012388 -0.10701885299 -0.015930015566
          -0.024746175939 -0.031092770239 -0.055438672732 -0.056473220682 -0.071824783426 -0.032350798768
          -0.0068311278949 -0.031652174289 -0.0075297523744 -0.070823512529 -0.092247240197 -0.07899992935
          -0.063648366606 -0.071057394908 -0.095217249423 -0.092364181386 -0.070940453718 -0.06907268762
          -0.095067057778 -0.094224895778 -0.070065041264 -0.067556479015 -0.094510146935 -0.094308953476
          -0.068314583317 -0.066584893448 -0.094250510037 -0.094024354151 -0.067070686231 -0.064526789121
          -0.093331419382 -0.093221457874 -0.065555841285 -0.05743978096 -0.088265078519 -0.089787915301
          -0.060983285041 -0.036132924176 -0.065540127037 -0.077611650127 -0.046786352568 0.0055311101429
          -0.0051994527116 -0.044708109878 -0.015300907017 -0.028468665002 -0.042470942842 -0.017649896448
          -0.003392626917 -0.01593064596 -0.0051118774059 -0.037204437091 -0.05401397481 -0.046838828887
          -0.032836551047 -0.038392085916 -0.054724740412 -0.054607799223 -0.037798261504 -0.037782510893
          -0.053427599256 -0.0544199529 -0.038087298405 -0.037091176216 -0.052323827616 -0.053081931918
          -0.037436843555 -0.036251576212 -0.05141823483 -0.051904027614 -0.036671376214 -0.034237187051
          -0.049381988086 -0.05041104025 -0.035244381632 -0.029037358941 -0.04323856995 -0.046782074031
          -0.031637272996 -0.017534820111 -0.026833872144 -0.037487300535 -0.023286089526 -0.00073099624131
          0.0024000569508 -0.018431960209 -0.0091329081761 -0.013395292597 -0.020931978799 -0.0083939597567
          -0.0015718859088 -0.0074835892527 -0.0024822564129 -0.017989280929 -0.02759685901 -0.023228972966
          -0.015692286763 -0.018855591668 -0.028623838792 -0.02803001438 -0.018422436299 -0.018578591203
          -0.028180551048 -0.02848533856 -0.018717091436 -0.018078945195 -0.027585060706 -0.027930728044
          -0.018328768199 -0.017359977152 -0.026805776682 -0.027225576684 -0.017719461174 -0.015925028138
          -0.025081107594 -0.026088302175 -0.016642502645 -0.01291229924 -0.02097482909 -0.023574743146
          -0.014418663689 -0.0074351277141 -0.012484973913 -0.018236243327 -0.010173713477 0.00063799208155
          -4.6502079878e-05 -0.0084484140147 -0.0033985678163 -0.005924588703 -0.0096599406498 -0.0037482373059
          -0.00070705822294 -0.003315823463 -0.0011394720659 -0.0081391906565 -0.013064235793 -0.010767241627
          -0.0070318896798 -0.008731055158 -0.013793323413 -0.013360168044 -0.0084351229073 -0.0086929291685
          -0.013635760186 -0.013774260418 -0.0087119921633 -0.0084436965029 -0.013261320849 -0.013511143853
          -0.0085683128357 -0.0080138055007 -0.012686891326 -0.013046375348 -0.0082287510018 -0.0072047790429
          -0.01156490359 -0.012282378097 -0.0076092922718 -0.0057102116069 -0.0093112554234 -0.010817619872
          -0.0064574953249 -0.0032295206807 -0.0053323241974 -0.0080709099604 -0.0044698661438 6.8142896321e-05
          0.00035306748894 -0.0036834924089 -0.0015806888922 -0.0023074972521 -0.0041160429775 -0.0015072777375
          -0.00031753110766 -0.0013125141799 -0.0005122946653 -0.0031416962306 -0.0056404434436 -0.0045331424668
          -0.0027245967413 -0.0033656211939 -0.006048338176 -0.0057524059252 -0.0032536587122 -0.0033207849659
          -0.0060068570672 -0.006025920062 -0.0033432030799 -0.0031737959125 -0.0058087462077 -0.0059333625405
          -0.0032472904392 -0.0029424841329 -0.0054781448168 -0.0056930903179 -0.0030581400227 -0.0025636592306
          -0.0048842191367 -0.0052887323657 -0.0027530716817 -0.0019577597463 -0.0038339856766 -0.0045812693946
          -0.0022607094885 -0.0010723839148 -0.0021509522978 -0.0033912977609 -0.0015150718306 0.00011064102236
          8.9391959338e-05 -0.0015594398292 -0.00048087144624 -0.00023438903792 -0.001270943145 -0.00027596007279
          -0.00020799377972 -0.00022119140882 -0.00026276244369 -7.7048390719e-05 -0.0016093723106 -0.0011922728214
          -0.00015571871432 5.5051265109e-05 -0.0016552849644 -0.0015433224827 -1.0998562805e-05 0.00016293109695
          -0.0015789269345 -0.0016013450485 0.00010899118103 0.00025771856364 -0.0014580386744 -0.0015315332011
          0.0002103248303 0.00035255915514 -0.0012949624889 -0.0014106183787 0.00030513885939 0.00044772700765
          -0.0010579661115 -0.0012473785626 0.0004001430814 0.00048697439361 -0.00073539267635 -0.0010383424185
          0.00046735070063 0.00040527690128 -0.00033355350678 -0.00077624142252 0.00044612564745 0.00012855496214
          0.00011959799225 -0.00047191447635 0.00026691593171 0.0020218631 0.00089373703102 0.00090693466012
          -7.6445820463e-05 0.00097270863974 -0.00014221980009 0.0032147167878 0.0015688341985 0.0014901638749
          0.0026182899439 0.0036691872512 0.0018621192582 0.0017960694302 0.0034419520195 0.0038557620456
          0.0020093465713 0.0019554066553 0.0037624746484 0.0039388904339 0.0020983044988 0.0020509107654
          0.0038973262397 0.0039587235064 0.0021556413307 0.002108221035 0.0039488069701 0.0038741556193
          0.0021609413135 0.0021133573872 0.0039164395628 0.0035145608386 0.0020007676161 0.0019811439232
          0.003694358229 0.0025326279922 0.0014689524467 0.0015098011929 0.0030235944154 0.00021495908894
          0.00017175702554 0.00031011799511 0.0013737935406 0.0063979361235 0.0042098996117 0.0031607451515
          0.00042569103464 0.0034118135791 0.00017462260709 0.0084019693858 0.0058083430868 0.0052119162429
          0.0073999527546 0.0089692912721 0.0063192392616 0.0060920040299 0.0086856303289 0.0092055713151
          0.0065306666803 0.0064373792831 0.0090874312936 0.0092902968925 0.0066145936632 0.006573029469
          0.0092479341038 0.0092872234611 0.0066229734837 0.0066130569475 0.0092887601768 0.0091355716946
          0.006504863657 0.0065471476005 0.0092113975779 0.0085934200572 0.0060539904479 0.0062337878383
          0.0088644958759 0.0068976158775 0.0047151219348 0.0052060883581 0.0077455179673 0.0015575231313
          0.00088624111012 0.0020450755617 0.0042275695044
        </DataArray>
        <DataArray type="Float64" Name="T" format="ascii" RangeMin="-0.29785760152" RangeMax="101">
          100 100.5 62.603433077 100.25 81.551716539 81.301716539
          39.559393656 51.081413367 69.779696828 100.5 64.132439648 100.5
          82.316219824 82.316219824 63.367936363 100.5 63.266538221 100.5
          81.883269111 81.883269111 63.699488935 100.5 62.581041035 100.5
          81.540520518 81.540520518 62.923789628 100.5 62.36060685 100.5
          81.430303425 81.430303425 62.470823943 100.5 62.548847381 100.5
          81.524423691 81.524423691 62.454727116 100.5 63.127105265 100.5
          81.813552633 81.813552633 62.837976323 100.5 63.621162863 100.5
          82.060581431 82.060581431 63.374134064 100.5 60.39773935 100.5
          80.448869675 80.448869675 62.009451106 101 40.730419607 100.75
          70.865209803 70.615209803 50.564079478 24.685526454 43.644479766 32.122460055
          17.194241125 20.93988379 28.376817391 21.375592248 42.754015948 41.989512663
          23.030559351 17.359437662 40.312987942 40.745938655 19.367514955 15.159974192
          38.870507614 39.213256207 16.259705927 14.318607774 38.339607312 38.449824404
          14.739290983 14.095323615 38.322085498 38.227965233 14.206965694 13.949351462
          38.538228363 38.249099421 14.022337539 13.141999242 38.381581052 38.134552254
          13.545675352 9.7801401361 35.088939743 36.700651499 11.461069689 -0.29785760152
          20.216281003 30.049940874 4.7411412673 9.0424382302 16.863982342 13.118339678
          7.651527808 8.3469830191 12.422884467 6.9659308344 14.170761541 15.825728644
          8.0041845323 5.1587024259 11.259070044 13.267147337 6.0623166301 4.3706883194
          9.7653312557 10.865062991 4.7646953726 4.1382014543 9.2284046139 9.6490878232
          4.2544448868 4.0812772814 9.0883004484 9.1999425275 4.1097393678 3.9833065946
          8.9663290281 9.039315105 4.032291938 3.6146347109 8.3783169765 8.7819930863
          3.7989706527 2.5925844078 6.186362272 7.8672918249 3.1036095593 0.7189754356
          0.21055891704 5.2495577859 1.6557799217 3.45015912 6.2462986751 5.550843464
          3.3322979034 3.3912285117 5.4919128557 2.6502879696 4.808109402 5.8463630999
          3.0502235448 2.0061782065 3.5824403162 4.4860545204 2.3282330881 1.712461263
          3.0415747912 3.4355818444 1.8593197347 1.6081930999 2.8731972771 2.9894407097
          1.6603271815 1.5629131367 2.822095209 2.8505572955 1.5855531183 1.4958694431
          2.7395880188 2.7885733622 1.5293912899 1.3333778321 2.4740062715 2.6583422133
          1.4146236376 1.0072746198 1.7999295138 2.3109546654 1.170326226 0.60687487146
          0.66292515353 1.5997296396 0.80707474564 1.349948377 2.4000537485 2.3411231402
          1.4098961805 1.3799222788 2.371097042 1.0672053115 1.8587466406 2.2586822157
          1.2085768443 0.83823043326 1.4222043199 1.7442592014 0.95271787238 0.72055160027
          1.2165064316 1.3633649034 0.77939101677 0.66922727469 1.1387101873 1.1908442688
          0.69488943748 0.64032936154 1.1016212491 1.1242612307 0.65477831812 0.6032681416
          1.0495687923 1.0830906391 0.62179875157 0.53475561943 0.93406672577 1.0153125313
          0.56901188051 0.42707507064 0.71717484524 0.88022645137 0.48091534503 0.32943904071
          0.46815695609 0.66835683027 0.37825705568 0.5326105571 0.94127946706 0.9712533688
          0.58108848207 0.55684951959 0.99549233129 0.43434435402 0.75077483276 0.89214636552
          0.48347745556 0.35278078823 0.59550561074 0.70999304986 0.39356257112 0.30564496357
          0.51309828192 0.57193769842 0.3292128759 0.28142533542 0.47532630505 0.50098846784
          0.29353514949 0.26566592381 0.45299764267 0.46744659925 0.27354562961 0.24724984838
          0.42525899499 0.44378960496 0.25645788609 0.21911818917 0.3769369043 0.41119316538
          0.23318401877 0.18248557642 0.30478032353 0.35862059792 0.20080188279 0.15591014303
          0.24267459187 0.29149260684 0.16919785972 0.21033498987 0.37147277349 0.39571173597
          0.23473414726 0.22253456857 0.40791131467 0.1761218946 0.30523312431 0.35436622585
          0.19322844224 0.14704975921 0.24991527372 0.29069705662 0.16158582691 0.12847052378
          0.21705774368 0.240625656 0.13776014149 0.11758635461 0.19950584502 0.21161565909
          0.1230284392 0.10978441969 0.18772517175 0.19560487755 0.11368538715 0.10123158377
          0.17424071607 0.18344875379 0.10550800173 0.089893536807 0.15450586299 0.16857169259
          0.095562560288 0.07709339677 0.12978948659 0.14810579297 0.083493466788 0.069072092977
          0.112491118 0.1257788347 0.073082744873 0.083898145572 0.14711656772 0.15931614642
          0.094400582365 0.089149363969 0.16456736481 0.071804956428 0.12396342552 0.14106997315
          0.077851551 0.061303088567 0.10417642389 0.11871249159 0.066554022498 0.053988990872
          0.091229757325 0.10051937504 0.05764603972 0.049214169957 0.083400262286 0.088842346867
          0.051601580415 0.045542285017 0.077663352352 0.081564319816 0.047378227487 0.041706588757
          0.071469086263 0.075745504222 0.043624436887 0.037148547038 0.063521041923 0.069190065404
          0.039427567898 0.0325192063 0.054806301535 0.061206371554 0.034833876669 0.029813442805
          0.049442767891 0.053453419787 0.031166324553 0.036786961824 0.060342553698 0.065593772095
          0.041188286083 0.038987623954 0.067794434224 0.032052411886 0.051928684157 0.057975278729
          0.034419686855 0.027843922318 0.044573505443 0.049824439373 0.029948167102 0.024687406338
          0.039338198605 0.042995247453 0.026265664328 0.022431536356 0.035822853157 0.038210263614
          0.023559471347 0.020604838338 0.033073561678 0.034909504148 0.021518187347 0.018771760267